 Entering Gaussian System, Link 0=/home/pcmt/gaussian/g16.C.01/g16/g16
 Initial command:
 /home/pcmt/gaussian/g16.C.01/g16/l1.exe "/state/partition2/vallet/1016706.phlam-s-sakura/Gau-7563.inp" -scrdir="/state/partition2/vallet/1016706.phlam-s-sakura/"
 Entering Link 1 = /home/pcmt/gaussian/g16.C.01/g16/l1.exe PID=      7564.
  
 Copyright (c) 1988-2019, Gaussian, Inc.  All Rights Reserved.
  
 This is part of the Gaussian(R) 16 program.  It is based on
 the Gaussian(R) 09 system (copyright 2009, Gaussian, Inc.),
 the Gaussian(R) 03 system (copyright 2003, Gaussian, Inc.),
 the Gaussian(R) 98 system (copyright 1998, Gaussian, Inc.),
 the Gaussian(R) 94 system (copyright 1995, Gaussian, Inc.),
 the Gaussian 92(TM) system (copyright 1992, Gaussian, Inc.),
 the Gaussian 90(TM) system (copyright 1990, Gaussian, Inc.),
 the Gaussian 88(TM) system (copyright 1988, Gaussian, Inc.),
 the Gaussian 86(TM) system (copyright 1986, Carnegie Mellon
 University), and the Gaussian 82(TM) system (copyright 1983,
 Carnegie Mellon University). Gaussian is a federally registered
 trademark of Gaussian, Inc.
  
 This software contains proprietary and confidential information,
 including trade secrets, belonging to Gaussian, Inc.
  
 This software is provided under written license and may be
 used, copied, transmitted, or stored only in accord with that
 written license.
  
 The following legend is applicable only to US Government
 contracts under FAR:
  
                    RESTRICTED RIGHTS LEGEND
  
 Use, reproduction and disclosure by the US Government is
 subject to restrictions as set forth in subparagraphs (a)
 and (c) of the Commercial Computer Software - Restricted
 Rights clause in FAR 52.227-19.
  
 Gaussian, Inc.
 340 Quinnipiac St., Bldg. 40, Wallingford CT 06492
  
  
 ---------------------------------------------------------------
 Warning -- This program may not be used in any manner that
 competes with the business of Gaussian, Inc. or will provide
 assistance to any competitor of Gaussian, Inc.  The licensee
 of this program is prohibited from giving any competitor of
 Gaussian, Inc. access to this program.  By using this program,
 the user acknowledges that Gaussian, Inc. is engaged in the
 business of creating and licensing software in the field of
 computational chemistry and represents and warrants to the
 licensee that it is not a competitor of Gaussian, Inc. and that
 it will not use this program in any manner prohibited above.
 ---------------------------------------------------------------
  

 Cite this work as:
 Gaussian 16, Revision C.01,
 M. J. Frisch, G. W. Trucks, H. B. Schlegel, G. E. Scuseria, 
 M. A. Robb, J. R. Cheeseman, G. Scalmani, V. Barone, 
 G. A. Petersson, H. Nakatsuji, X. Li, M. Caricato, A. V. Marenich, 
 J. Bloino, B. G. Janesko, R. Gomperts, B. Mennucci, H. P. Hratchian, 
 J. V. Ortiz, A. F. Izmaylov, J. L. Sonnenberg, D. Williams-Young, 
 F. Ding, F. Lipparini, F. Egidi, J. Goings, B. Peng, A. Petrone, 
 T. Henderson, D. Ranasinghe, V. G. Zakrzewski, J. Gao, N. Rega, 
 G. Zheng, W. Liang, M. Hada, M. Ehara, K. Toyota, R. Fukuda, 
 J. Hasegawa, M. Ishida, T. Nakajima, Y. Honda, O. Kitao, H. Nakai, 
 T. Vreven, K. Throssell, J. A. Montgomery, Jr., J. E. Peralta, 
 F. Ogliaro, M. J. Bearpark, J. J. Heyd, E. N. Brothers, K. N. Kudin, 
 V. N. Staroverov, T. A. Keith, R. Kobayashi, J. Normand, 
 K. Raghavachari, A. P. Rendell, J. C. Burant, S. S. Iyengar, 
 J. Tomasi, M. Cossi, J. M. Millam, M. Klene, C. Adamo, R. Cammi, 
 J. W. Ochterski, R. L. Martin, K. Morokuma, O. Farkas, 
 J. B. Foresman, and D. J. Fox, Gaussian, Inc., Wallingford CT, 2019.
 
 ******************************************
 Gaussian 16:  ES64L-G16RevC.01  3-Jul-2019
                 2-May-2024 
 ******************************************
 %mem=16000Mb
 %NProc=16
 Will use up to   16 processors via shared memory.
 %chk=h3o-p.pbe0.optg-freq.chk
 ----------------------------------------------------------------------
 #p PBE1PBE/GEN/GEN GFInput GFOldPrint 5D 7F IOP(4/69=2, 6/7=3) Scf=(XQ
 C, NoVarAcc,MaxCycle=100,conver=8) Integral=(Grid=UltraFine) Guess=Har
 ris Symm=None Opt Freq=(Raman,InternalModes,SaveNormalModes) SCRF=(COS
 MO,Read)
 ----------------------------------------------------------------------
 1/18=20,19=15,26=6,38=1,40=2/1,3;
 2/9=110,12=2,15=3,17=6,18=5,40=1/2;
 3/5=7,8=11,11=2,24=11,25=1,30=1,70=22103,71=1,74=-13,75=-5,82=7/1,2,3;
 4/11=8,69=2/1;
 5/5=2,6=8,7=100,8=3,13=1,38=1/2,8;
 6/7=3,8=2,9=2,10=2,28=1/1;
 7/30=1,92=1/1,2,3,16;
 1/18=20,19=15,26=6/3(2);
 2/9=110,15=3/2;
 99//99;
 2/9=110,15=3/2;
 3/5=7,6=1,8=11,11=2,25=1,30=1,70=22105,71=1,74=-13,75=-5,82=7/1,2,3;
 4/5=5,11=8,16=3,69=2/1;
 5/5=2,6=8,7=100,8=3,13=1,38=1/2,8;
 7/30=1,92=1/1,2,3,16;
 1/18=20,19=15,26=6/3(-5);
 2/9=110,15=3/2;
 6/7=3,8=2,9=2,10=2,19=2,28=1/1;
 99/9=1/99;
 Leave Link    1 at Thu May  2 22:38:50 2024, MaxMem=  2097152000 cpu:               1.9 elap:               0.1
 (Enter /home/pcmt/gaussian/g16.C.01/g16/l101.exe)
 ----------------------
 h2o.pbe0.optg-freq.chk
 ----------------------
 Symbolic Z-matrix:
 Charge =  1 Multiplicity = 1
 O                     0.        0.        0. 
 H                     1.        0.        0. 
 H                     0.        1.        0.5 
 H                     0.        1.       -0.5 
 
 ITRead=  0  0  0  0
 MicOpt= -1 -1 -1 -1
 NAtoms=      4 NQM=        4 NQMF=       0 NMMI=      0 NMMIF=      0
                NMic=       0 NMicF=      0.
                    Isotopes and Nuclear Properties:
 (Nuclear quadrupole moments (NQMom) in fm**2, nuclear magnetic moments (NMagM)
  in nuclear magnetons)

  Atom         1           2           3           4
 IAtWgt=          16           1           1           1
 AtmWgt=  15.9949146   1.0078250   1.0078250   1.0078250
 NucSpn=           0           1           1           1
 AtZEff=  -0.0000000  -0.0000000  -0.0000000  -0.0000000
 NQMom=    0.0000000   0.0000000   0.0000000   0.0000000
 NMagM=    0.0000000   2.7928460   2.7928460   2.7928460
 AtZNuc=   8.0000000   1.0000000   1.0000000   1.0000000
 Leave Link  101 at Thu May  2 22:38:51 2024, MaxMem=  2097152000 cpu:               3.2 elap:               0.4
 (Enter /home/pcmt/gaussian/g16.C.01/g16/l103.exe)

 GradGradGradGradGradGradGradGradGradGradGradGradGradGradGradGradGradGrad
 Berny optimization.
 Initialization pass.
                           ----------------------------
                           !    Initial Parameters    !
                           ! (Angstroms and Degrees)  !
 --------------------------                            --------------------------
 ! Name  Definition              Value          Derivative Info.                !
 --------------------------------------------------------------------------------
 ! R1    R(1,2)                  1.0            estimate D2E/DX2                !
 ! R2    R(1,3)                  1.118          estimate D2E/DX2                !
 ! R3    R(1,4)                  1.118          estimate D2E/DX2                !
 ! A1    A(2,1,3)               90.0            estimate D2E/DX2                !
 ! A2    A(2,1,4)               90.0            estimate D2E/DX2                !
 ! A3    A(3,1,4)               53.1301         estimate D2E/DX2                !
 ! D1    D(2,1,4,3)            -90.0            estimate D2E/DX2                !
 --------------------------------------------------------------------------------
 Trust Radius=3.00D-01 FncErr=5.00D-06 GrdErr=5.00D-06 EigMax=2.50D+02 EigMin=1.00D-04
 Number of steps in this run=     20 maximum allowed number of steps=    100.
 GradGradGradGradGradGradGradGradGradGradGradGradGradGradGradGradGradGrad

 Leave Link  103 at Thu May  2 22:38:51 2024, MaxMem=  2097152000 cpu:               0.1 elap:               0.1
 (Enter /home/pcmt/gaussian/g16.C.01/g16/l202.exe)
                          Input orientation:                          
 ---------------------------------------------------------------------
 Center     Atomic      Atomic             Coordinates (Angstroms)
 Number     Number       Type             X           Y           Z
 ---------------------------------------------------------------------
      1          8           0        0.000000    0.000000    0.000000
      2          1           0        1.000000    0.000000    0.000000
      3          1           0        0.000000    1.000000    0.500000
      4          1           0        0.000000    1.000000   -0.500000
 ---------------------------------------------------------------------
                    Distance matrix (angstroms):
                    1          2          3          4
     1  O    0.000000
     2  H    1.000000   0.000000
     3  H    1.118034   1.500000   0.000000
     4  H    1.118034   1.500000   1.000000   0.000000
 Symmetry turned off by external request.
 Stoichiometry    H3O
 Rotational constants (GHZ):         349.7244947         217.9119902         183.3447505
 Leave Link  202 at Thu May  2 22:38:51 2024, MaxMem=  2097152000 cpu:               0.0 elap:               0.0
 (Enter /home/pcmt/gaussian/g16.C.01/g16/l301.exe)
 General basis read from cards:  (5D, 7F)
 Centers:       1
 Def2TZVP
 ****
 Centers:       2      3      4
 Def2TZVP
 ****
 Ernie: Thresh=  0.10000D-02 Tol=  0.10000D-05 Strict=F.
 AO basis set in the form of general basis input (Overlap normalization):
      1 0
 S   6 1.00       0.000000000000
      0.2703238263D+05  0.5722733521D-03
      0.4052387139D+04  0.4435323349D-02
      0.9223272271D+03  0.2302010771D-01
      0.2612407099D+03  0.9282249067D-01
      0.8535464135D+02  0.2937850001D+00
      0.3103503524D+02  0.6740160450D+00
 S   2 1.00       0.000000000000
      0.1226086073D+02  0.6383993703D+00
      0.4998707601D+01  0.3953458713D+00
 S   1 1.00       0.000000000000
      0.1170310816D+01  0.1000000000D+01
 S   1 1.00       0.000000000000
      0.4647474099D+00  0.1000000000D+01
 S   1 1.00       0.000000000000
      0.1850453636D+00  0.1000000000D+01
 P   4 1.00       0.000000000000
      0.6327495480D+02  0.1201833222D-01
      0.1462704938D+02  0.8300542179D-01
      0.4450122346D+01  0.3199174393D+00
      0.1527579965D+01  0.7071554292D+00
 P   1 1.00       0.000000000000
      0.5293511794D+00  0.1000000000D+01
 P   1 1.00       0.000000000000
      0.1747842127D+00  0.1000000000D+01
 D   1 1.00       0.000000000000
      0.2314000000D+01  0.1000000000D+01
 D   1 1.00       0.000000000000
      0.6450000000D+00  0.1000000000D+01
 F   1 1.00       0.000000000000
      0.1428000000D+01  0.1000000000D+01
 ****
      2 0
 S   3 1.00       0.000000000000
      0.3406134100D+02  0.2543930721D-01
      0.5123574600D+01  0.1900859489D+00
      0.1164662600D+01  0.8524411301D+00
 S   1 1.00       0.000000000000
      0.3272304100D+00  0.1000000000D+01
 S   1 1.00       0.000000000000
      0.1030724100D+00  0.1000000000D+01
 P   1 1.00       0.000000000000
      0.8000000000D+00  0.1000000000D+01
 ****
      3 0
 S   3 1.00       0.000000000000
      0.3406134100D+02  0.2543930721D-01
      0.5123574600D+01  0.1900859489D+00
      0.1164662600D+01  0.8524411301D+00
 S   1 1.00       0.000000000000
      0.3272304100D+00  0.1000000000D+01
 S   1 1.00       0.000000000000
      0.1030724100D+00  0.1000000000D+01
 P   1 1.00       0.000000000000
      0.8000000000D+00  0.1000000000D+01
 ****
      4 0
 S   3 1.00       0.000000000000
      0.3406134100D+02  0.2543930721D-01
      0.5123574600D+01  0.1900859489D+00
      0.1164662600D+01  0.8524411301D+00
 S   1 1.00       0.000000000000
      0.3272304100D+00  0.1000000000D+01
 S   1 1.00       0.000000000000
      0.1030724100D+00  0.1000000000D+01
 P   1 1.00       0.000000000000
      0.8000000000D+00  0.1000000000D+01
 ****

 ***********************************************************************************************************************************
 *             ATOMIC CENTER             *        ATOMIC ORBITAL       *                     GAUSSIAN FUNCTIONS                    *
 ***********************************************************************************************************************************
 *                                       * FUNCTION    SHELL    SCALE  *                                                           *
 *    ATOM   X-COORD  Y-COORD  Z-COORD   *  NUMBER     TYPE     FACTOR *  EXPONENT    S-COEF      P-COEF      D-COEF      F-COEF   *
 ***********************************************************************************************************************************
 *     O      0.00000  0.00000  0.00000                                                                                            *
+                                                1   S           1.00                                                               
+                                                                      0.270324D+050.859858D+000.000000D+000.000000D+000.000000D+00 
 *                                                                     0.405239D+040.160553D+010.000000D+000.000000D+000.000000D+00*
 *                                                                     0.922327D+030.274588D+010.000000D+000.000000D+000.000000D+00*
 *                                                                     0.261241D+030.429877D+010.000000D+000.000000D+000.000000D+00*
 *                                                                     0.853546D+020.587977D+010.000000D+000.000000D+000.000000D+00*
 *                                                                     0.310350D+020.631640D+010.000000D+000.000000D+000.000000D+00*
 *                                               2   S           1.00                                                              *
+                                                                      0.122609D+020.298121D+010.000000D+000.000000D+000.000000D+00 
 *                                                                     0.499871D+010.941956D+000.000000D+000.000000D+000.000000D+00*
 *                                               3   S           1.00                                                              *
+                                                                      0.117031D+010.801929D+000.000000D+000.000000D+000.000000D+00 
 *                                               4   S           1.00                                                              *
+                                                                      0.464747D+000.401165D+000.000000D+000.000000D+000.000000D+00 
 *                                               5   S           1.00                                                              *
+                                                                      0.185045D+000.201080D+000.000000D+000.000000D+000.000000D+00 
 *                                           6-  8   P           1.00                                                              *
+                                                                      0.632750D+020.000000D+000.305720D+010.000000D+000.000000D+00 
 *                                                                     0.146270D+020.000000D+000.338448D+010.000000D+000.000000D+00*
 *                                                                     0.445012D+010.000000D+000.294743D+010.000000D+000.000000D+00*
 *                                                                     0.152758D+010.000000D+000.171183D+010.000000D+000.000000D+00*
 *                                           9- 11   P           1.00                                                              *
+                                                                      0.529351D+000.000000D+000.643606D+000.000000D+000.000000D+00 
 *                                          12- 14   P           1.00                                                              *
+                                                                      0.174784D+000.000000D+000.161090D+000.000000D+000.000000D+00 
 *                                          15- 19   D           1.00                                                              *
+                                                                      0.231400D+010.000000D+000.000000D+000.714571D+010.000000D+00 
 *                                          20- 24   D           1.00                                                              *
+                                                                      0.645000D+000.000000D+000.000000D+000.764080D+000.000000D+00 
 *                                          19- 31   F           1.00                                                              *
+                                                                      0.142800D+010.000000D+000.000000D+000.000000D+000.328165D+01 
 *---------------------------------------------------------------------------------------------------------------------------------*
 *     H      1.88973  0.00000  0.00000                                                                                            *
+                                               32   S           1.00                                                               
+                                                                      0.340613D+020.255630D+000.000000D+000.000000D+000.000000D+00 
 *                                                                     0.512357D+010.461360D+000.000000D+000.000000D+000.000000D+00*
 *                                                                     0.116466D+010.681121D+000.000000D+000.000000D+000.000000D+00*
 *                                              33   S           1.00                                                              *
+                                                                      0.327230D+000.308355D+000.000000D+000.000000D+000.000000D+00 
 *                                              34   S           1.00                                                              *
+                                                                      0.103072D+000.129648D+000.000000D+000.000000D+000.000000D+00 
 *                                          35- 37   P           1.00                                                              *
+                                                                      0.800000D+000.000000D+000.107846D+010.000000D+000.000000D+00 
 *---------------------------------------------------------------------------------------------------------------------------------*
 *     H      0.00000  1.88973  0.94486                                                                                            *
+                                               38   S           1.00                                                               
+                                                                      0.340613D+020.255630D+000.000000D+000.000000D+000.000000D+00 
 *                                                                     0.512357D+010.461360D+000.000000D+000.000000D+000.000000D+00*
 *                                                                     0.116466D+010.681121D+000.000000D+000.000000D+000.000000D+00*
 *                                              39   S           1.00                                                              *
+                                                                      0.327230D+000.308355D+000.000000D+000.000000D+000.000000D+00 
 *                                              40   S           1.00                                                              *
+                                                                      0.103072D+000.129648D+000.000000D+000.000000D+000.000000D+00 
 *                                          41- 43   P           1.00                                                              *
+                                                                      0.800000D+000.000000D+000.107846D+010.000000D+000.000000D+00 
 *---------------------------------------------------------------------------------------------------------------------------------*
 *     H      0.00000  1.88973 -0.94486                                                                                            *
+                                               44   S           1.00                                                               
+                                                                      0.340613D+020.255630D+000.000000D+000.000000D+000.000000D+00 
 *                                                                     0.512357D+010.461360D+000.000000D+000.000000D+000.000000D+00*
 *                                                                     0.116466D+010.681121D+000.000000D+000.000000D+000.000000D+00*
 *                                              45   S           1.00                                                              *
+                                                                      0.327230D+000.308355D+000.000000D+000.000000D+000.000000D+00 
 *                                              46   S           1.00                                                              *
+                                                                      0.103072D+000.129648D+000.000000D+000.000000D+000.000000D+00 
 *                                          47- 49   P           1.00                                                              *
+                                                                      0.800000D+000.000000D+000.107846D+010.000000D+000.000000D+00 
 ***********************************************************************************************************************************
    49 basis functions,    75 primitive gaussians,    54 cartesian basis functions
     5 alpha electrons        5 beta electrons
       nuclear repulsion energy        13.0411322937 Hartrees.
 IExCor= 1009 DFT=T Ex+Corr=PBE1PBE ExCW=0 ScaHFX=  0.250000
 ScaDFX=  0.750000  0.750000  1.000000  1.000000 ScalE2=  1.000000  1.000000
 IRadAn=      5 IRanWt=     -1 IRanGd=            0 ICorTp=0 IEmpDi=  4
 NAtoms=    4 NActive=    4 NUniq=    4 SFac= 1.00D+00 NAtFMM=   60 NAOKFM=F Big=F
 Integral buffers will be    131072 words long.
 Raffenetti 2 integral format.
 Two-electron integral symmetry is turned off.
 General density basis read from cards:  (5D, 7F)
 Centers:       1
 Def2TZVP
 ****
 Centers:       2      3      4
 Def2TZVP
 ****
    49 Density fitting functions
 Density basis set in the form of general basis input (Coulomb normalization):
      1 0
 S   6 1.00       0.000000000000
      0.2703238263D+05  0.5435345029D-03
      0.4052387139D+04  0.4212586979D-02
      0.9223272271D+03  0.2186406680D-01
      0.2612407099D+03  0.8816106172D-01
      0.8535464135D+02  0.2790314862D+00
      0.3103503524D+02  0.6401678055D+00
 S   2 1.00       0.000000000000
      0.1226086073D+02  0.6246133058D+00
      0.4998707601D+01  0.3868084824D+00
 S   1 1.00       0.000000000000
      0.1170310816D+01  0.1000000000D+01
 S   1 1.00       0.000000000000
      0.4647474099D+00  0.1000000000D+01
 S   1 1.00       0.000000000000
      0.1850453636D+00  0.1000000000D+01
 P   4 1.00       0.000000000000
      0.6327495480D+02  0.1157072397D-01
      0.1462704938D+02  0.7991398521D-01
      0.4450122346D+01  0.3080025010D+00
      0.1527579965D+01  0.6808182802D+00
 P   1 1.00       0.000000000000
      0.5293511794D+00  0.1000000000D+01
 P   1 1.00       0.000000000000
      0.1747842127D+00  0.1000000000D+01
 D   1 1.00       0.000000000000
      0.2314000000D+01  0.1000000000D+01
 D   1 1.00       0.000000000000
      0.6450000000D+00  0.1000000000D+01
 F   1 1.00       0.000000000000
      0.1428000000D+01  0.1000000000D+01
 ****
      2 0
 S   3 1.00       0.000000000000
      0.3406134100D+02  0.2444544597D-01
      0.5123574600D+01  0.1826596831D+00
      0.1164662600D+01  0.8191380142D+00
 S   1 1.00       0.000000000000
      0.3272304100D+00  0.1000000000D+01
 S   1 1.00       0.000000000000
      0.1030724100D+00  0.1000000000D+01
 P   1 1.00       0.000000000000
      0.8000000000D+00  0.1000000000D+01
 ****
      3 0
 S   3 1.00       0.000000000000
      0.3406134100D+02  0.2444544597D-01
      0.5123574600D+01  0.1826596831D+00
      0.1164662600D+01  0.8191380142D+00
 S   1 1.00       0.000000000000
      0.3272304100D+00  0.1000000000D+01
 S   1 1.00       0.000000000000
      0.1030724100D+00  0.1000000000D+01
 P   1 1.00       0.000000000000
      0.8000000000D+00  0.1000000000D+01
 ****
      4 0
 S   3 1.00       0.000000000000
      0.3406134100D+02  0.2444544597D-01
      0.5123574600D+01  0.1826596831D+00
      0.1164662600D+01  0.8191380142D+00
 S   1 1.00       0.000000000000
      0.3272304100D+00  0.1000000000D+01
 S   1 1.00       0.000000000000
      0.1030724100D+00  0.1000000000D+01
 P   1 1.00       0.000000000000
      0.8000000000D+00  0.1000000000D+01
 ****

 Using the following non-standard input for PCM:
 EPS=80.1
 Radii=Bondi
 RSolv=1.3
 --- end of non-standard input.
 ------------------------------------------------------------------------------
 Polarizable Continuum Model (PCM)
 =================================
 Model                : C-PCM.
 Atomic radii         : Bondi.
 Polarization charges : Total charges.
 Charge compensation  : None.
 Solution method      : On-the-fly selection.
 Cavity type          : Scaled VdW (van der Waals Surface) (Alpha=1.100).
 Cavity algorithm     : GePol (No added spheres)
                        Default sphere list used, NSphG=    4.
                        Lebedev-Laikov grids with approx.  5.0 points / Ang**2.
                        Smoothing algorithm: York/Karplus (Gamma=1.0000).
                        Polarization charges: spherical gaussians, with
                                              point-specific exponents (IZeta= 3).
                        Self-potential: point-specific (ISelfS= 7).
                        Self-field    : sphere-specific E.n sum rule (ISelfD= 2).
 1st derivatives      : Analytical E(r).r(x)/FMM algorithm (CHGder, D1EAlg=3).
                        Cavity 1st derivative terms included.
 Solvent              : Water, Eps=  80.100000 Eps(inf)=   1.777849
 ------------------------------------------------------------------------------
 Spheres list:
 ISph  on   Nord     Re0    Alpha      Xe            Ye            Ze
    1   O      1    1.5200  1.100      0.000000      0.000000      0.000000
    2   H      2    1.2000  1.100      1.000000      0.000000      0.000000
    3   H      3    1.2000  1.100      0.000000      1.000000      0.500000
    4   H      4    1.2000  1.100      0.000000      1.000000     -0.500000
 ------------------------------------------------------------------------------
 GePol: Number of generator spheres                  =       4
 GePol: Total number of spheres                      =       4
 GePol: Number of exposed spheres                    =       4 (100.00%)
 GePol: Number of points                             =     286
 GePol: Average weight of points                     =       0.16
 GePol: Minimum weight of points                     =   0.55D-05
 GePol: Maximum weight of points                     =    0.21770
 GePol: Number of points with low weight             =       3
 GePol: Fraction of low-weight points (<1% of avg)   =       1.05%
 GePol: Cavity surface area                          =     47.085 Ang**2
 GePol: Cavity volume                                =     28.337 Ang**3
 Leave Link  301 at Thu May  2 22:38:51 2024, MaxMem=  2097152000 cpu:               1.6 elap:               0.2
 (Enter /home/pcmt/gaussian/g16.C.01/g16/l302.exe)
 NPDir=0 NMtPBC=     1 NCelOv=     1 NCel=       1 NClECP=     1 NCelD=      1
         NCelK=      1 NCelE2=     1 NClLst=     1 CellRange=     0.0.
 One-electron integrals computed using PRISM.
 NBasis=    49 RedAO= T EigKep=  9.56D-03  NBF=    49
 NBsUse=    49 1.00D-06 EigRej= -1.00D+00 NBFU=    49
 Precomputing XC quadrature grid using
 IXCGrd= 4 IRadAn=           5 IRanWt=          -1 IRanGd=           0 AccXCQ= 0.00D+00.
 Generated NRdTot=       0 NPtTot=           0 NUsed=           0 NTot=          32
 NSgBfM=    54    54    54    54    54 MxSgAt=     4 MxSgA2=     4.
 Leave Link  302 at Thu May  2 22:38:52 2024, MaxMem=  2097152000 cpu:               2.9 elap:               0.2
 (Enter /home/pcmt/gaussian/g16.C.01/g16/l303.exe)
 DipDrv:  MaxL=1.
 Leave Link  303 at Thu May  2 22:38:52 2024, MaxMem=  2097152000 cpu:               0.9 elap:               0.1
 (Enter /home/pcmt/gaussian/g16.C.01/g16/l401.exe)
 ExpMin= 1.03D-01 ExpMax= 2.70D+04 ExpMxC= 9.22D+02 IAcc=3 IRadAn=         5 AccDes= 0.00D+00
 Harris functional with IExCor= 1009 and IRadAn=       5 diagonalized for initial guess.
 HarFok:  IExCor= 1009 AccDes= 0.00D+00 IRadAn=         5 IDoV= 1 UseB2=F ITyADJ=14
 ICtDFT=  3500011 ScaDFX=  1.000000  1.000000  1.000000  1.000000
 FoFCou: FMM=F IPFlag=           0 FMFlag=      100000 FMFlg1=           0
         NFxFlg=           0 DoJE=T BraDBF=F KetDBF=T FulRan=T
         wScrn=  0.000000 ICntrl=       500 IOpCl=  0 I1Cent=   200000004 NGrid=           0
         NMat0=    1 NMatS0=      1 NMatT0=    0 NMatD0=    1 NMtDS0=    0 NMtDT0=    0
 Symmetry not used in FoFCou.
 Harris En= -76.6945168608692    
 JPrj=0 DoOrth=F DoCkMO=F.
 Leave Link  401 at Thu May  2 22:38:52 2024, MaxMem=  2097152000 cpu:               4.7 elap:               0.4
 (Enter /home/pcmt/gaussian/g16.C.01/g16/l502.exe)
 Keep R1 ints in memory in canonical form, NReq=14781205.
 FoFCou: FMM=F IPFlag=           0 FMFlag=           0 FMFlg1=           0
         NFxFlg=           0 DoJE=F BraDBF=F KetDBF=F FulRan=T
         wScrn=  0.000000 ICntrl=       600 IOpCl=  0 I1Cent=           0 NGrid=           0
         NMat0=    1 NMatS0=   1225 NMatT0=    0 NMatD0=    1 NMtDS0=    0 NMtDT0=    0
 Symmetry not used in FoFCou.
 Two-electron integral symmetry not used.
 Closed shell SCF:
 Using DIIS extrapolation, IDIIS=  1040.
 NGot=  2097152000 LenX=  2096393735 LenY=  2096390378
 Requested convergence on RMS density matrix=1.00D-08 within 100 cycles.
 Requested convergence on MAX density matrix=1.00D-06.
 Requested convergence on             energy=1.00D-06.
 No special actions if energy rises.

 Cycle   1  Pass 1  IDiag  1:
 Inv3:  Mode=1 IEnd=      245388.
 Iteration    1 A*A^-1 deviation from unit magnitude is 3.77D-15 for     71.
 Iteration    1 A*A^-1 deviation from orthogonality  is 1.13D-15 for     98     63.
 Iteration    1 A^-1*A deviation from unit magnitude is 3.55D-15 for     71.
 Iteration    1 A^-1*A deviation from orthogonality  is 8.92D-16 for    218    120.
 E= -76.6913834328303    
 DIIS: error= 2.16D-02 at cycle   1 NSaved=   1.
 NSaved= 1 IEnMin= 1 EnMin= -76.6913834328303     IErMin= 1 ErrMin= 2.16D-02
 ErrMax= 2.16D-02  0.00D+00 EMaxC= 1.00D-01 BMatC= 1.99D-02 BMatP= 1.99D-02
 IDIUse=3 WtCom= 7.84D-01 WtEn= 2.16D-01
 Coeff-Com:  0.100D+01
 Coeff-En:   0.100D+01
 Coeff:      0.100D+01
 Gap=     0.433 Goal=   None    Shift=    0.000
 GapD=    0.433 DampG=2.000 DampE=0.500 DampFc=1.0000 IDamp=-1.
 RMSDP=2.28D-03 MaxDP=3.53D-02              OVMax= 7.16D-02

 Cycle   2  Pass 1  IDiag  1:
 E= -76.6882180545728     Delta-E=        0.003165378257 Rises=F Damp=F
 DIIS: error= 2.02D-02 at cycle   2 NSaved=   2.
 NSaved= 2 IEnMin= 1 EnMin= -76.6913834328303     IErMin= 2 ErrMin= 2.02D-02
 ErrMax= 2.02D-02  0.00D+00 EMaxC= 1.00D-01 BMatC= 2.34D-02 BMatP= 1.99D-02
 IDIUse=2 WtCom= 0.00D+00 WtEn= 1.00D+00
 Coeff-En:   0.557D+00 0.443D+00
 Coeff:      0.557D+00 0.443D+00
 Gap=     0.463 Goal=   None    Shift=    0.000
 RMSDP=1.47D-03 MaxDP=2.03D-02 DE= 3.17D-03 OVMax= 4.17D-02

 Cycle   3  Pass 1  IDiag  1:
 E= -76.7041752161361     Delta-E=       -0.015957161563 Rises=F Damp=F
 DIIS: error= 3.02D-03 at cycle   3 NSaved=   3.
 NSaved= 3 IEnMin= 3 EnMin= -76.7041752161361     IErMin= 3 ErrMin= 3.02D-03
 ErrMax= 3.02D-03  0.00D+00 EMaxC= 1.00D-01 BMatC= 4.23D-04 BMatP= 1.99D-02
 IDIUse=3 WtCom= 9.70D-01 WtEn= 3.02D-02
 Coeff-Com:  0.648D-01 0.139D+00 0.797D+00
 Coeff-En:   0.000D+00 0.000D+00 0.100D+01
 Coeff:      0.629D-01 0.134D+00 0.803D+00
 Gap=     0.462 Goal=   None    Shift=    0.000
 RMSDP=1.70D-04 MaxDP=2.16D-03 DE=-1.60D-02 OVMax= 4.43D-03

 Cycle   4  Pass 1  IDiag  1:
 E= -76.7044494856455     Delta-E=       -0.000274269509 Rises=F Damp=F
 DIIS: error= 5.00D-04 at cycle   4 NSaved=   4.
 NSaved= 4 IEnMin= 4 EnMin= -76.7044494856455     IErMin= 4 ErrMin= 5.00D-04
 ErrMax= 5.00D-04  0.00D+00 EMaxC= 1.00D-01 BMatC= 8.51D-06 BMatP= 4.23D-04
 IDIUse=3 WtCom= 9.95D-01 WtEn= 5.00D-03
 Coeff-Com: -0.423D-03 0.202D-01 0.186D+00 0.794D+00
 Coeff-En:   0.000D+00 0.000D+00 0.000D+00 0.100D+01
 Coeff:     -0.421D-03 0.201D-01 0.185D+00 0.795D+00
 Gap=     0.462 Goal=   None    Shift=    0.000
 RMSDP=2.50D-05 MaxDP=2.50D-04 DE=-2.74D-04 OVMax= 6.11D-04

 Cycle   5  Pass 1  IDiag  1:
 E= -76.7044544839991     Delta-E=       -0.000004998354 Rises=F Damp=F
 DIIS: error= 2.63D-05 at cycle   5 NSaved=   5.
 NSaved= 5 IEnMin= 5 EnMin= -76.7044544839991     IErMin= 5 ErrMin= 2.63D-05
 ErrMax= 2.63D-05  0.00D+00 EMaxC= 1.00D-01 BMatC= 2.69D-08 BMatP= 8.51D-06
 IDIUse=1 WtCom= 1.00D+00 WtEn= 0.00D+00
 Coeff-Com: -0.391D-03 0.123D-02 0.147D-01 0.517D-01 0.933D+00
 Coeff:     -0.391D-03 0.123D-02 0.147D-01 0.517D-01 0.933D+00
 Gap=     0.462 Goal=   None    Shift=    0.000
 RMSDP=2.21D-06 MaxDP=2.09D-05 DE=-5.00D-06 OVMax= 6.03D-05

 Cycle   6  Pass 1  IDiag  1:
 E= -76.7044545044087     Delta-E=       -0.000000020410 Rises=F Damp=F
 DIIS: error= 6.40D-06 at cycle   6 NSaved=   6.
 NSaved= 6 IEnMin= 6 EnMin= -76.7044545044087     IErMin= 6 ErrMin= 6.40D-06
 ErrMax= 6.40D-06  0.00D+00 EMaxC= 1.00D-01 BMatC= 1.77D-09 BMatP= 2.69D-08
 IDIUse=1 WtCom= 1.00D+00 WtEn= 0.00D+00
 Coeff-Com: -0.436D-04-0.265D-03-0.167D-02-0.127D-01 0.152D+00 0.863D+00
 Coeff:     -0.436D-04-0.265D-03-0.167D-02-0.127D-01 0.152D+00 0.863D+00
 Gap=     0.462 Goal=   None    Shift=    0.000
 RMSDP=5.63D-07 MaxDP=4.52D-06 DE=-2.04D-08 OVMax= 1.64D-05

 Cycle   7  Pass 1  IDiag  1:
 E= -76.7044545058311     Delta-E=       -0.000000001422 Rises=F Damp=F
 DIIS: error= 8.83D-07 at cycle   7 NSaved=   7.
 NSaved= 7 IEnMin= 7 EnMin= -76.7044545058311     IErMin= 7 ErrMin= 8.83D-07
 ErrMax= 8.83D-07  0.00D+00 EMaxC= 1.00D-01 BMatC= 1.49D-11 BMatP= 1.77D-09
 IDIUse=1 WtCom= 1.00D+00 WtEn= 0.00D+00
 Coeff-Com:  0.340D-05-0.212D-04-0.256D-03-0.364D-03-0.254D-01-0.178D-01
 Coeff-Com:  0.104D+01
 Coeff:      0.340D-05-0.212D-04-0.256D-03-0.364D-03-0.254D-01-0.178D-01
 Coeff:      0.104D+01
 Gap=     0.462 Goal=   None    Shift=    0.000
 RMSDP=9.77D-08 MaxDP=1.00D-06 DE=-1.42D-09 OVMax= 3.51D-06

 Cycle   8  Pass 1  IDiag  1:
 E= -76.7044545058579     Delta-E=       -0.000000000027 Rises=F Damp=F
 DIIS: error= 7.22D-08 at cycle   8 NSaved=   8.
 NSaved= 8 IEnMin= 8 EnMin= -76.7044545058579     IErMin= 8 ErrMin= 7.22D-08
 ErrMax= 7.22D-08  0.00D+00 EMaxC= 1.00D-01 BMatC= 3.02D-13 BMatP= 1.49D-11
 IDIUse=1 WtCom= 1.00D+00 WtEn= 0.00D+00
 Coeff-Com: -0.206D-06 0.554D-05 0.213D-04 0.233D-03-0.218D-02-0.123D-01
 Coeff-Com:  0.289D-01 0.985D+00
 Coeff:     -0.206D-06 0.554D-05 0.213D-04 0.233D-03-0.218D-02-0.123D-01
 Coeff:      0.289D-01 0.985D+00
 Gap=     0.462 Goal=   None    Shift=    0.000
 RMSDP=8.91D-09 MaxDP=1.25D-07 DE=-2.68D-11 OVMax= 2.86D-07

 Error on total polarization charges =  0.00477
 SCF Done:  E(RPBE1PBE) =  -76.7044545059     A.U. after    8 cycles
            NFock=  8  Conv=0.89D-08     -V/T= 2.0078
 KE= 7.611091001854D+01 PE=-2.028212036030D+02 EE= 3.696470678493D+01
 Leave Link  502 at Thu May  2 22:38:54 2024, MaxMem=  2097152000 cpu:              22.9 elap:               1.5
 (Enter /home/pcmt/gaussian/g16.C.01/g16/l508.exe)
 QCSCF skips out because SCF is already converged.
 Leave Link  508 at Thu May  2 22:38:54 2024, MaxMem=  2097152000 cpu:               0.1 elap:               0.1
 (Enter /home/pcmt/gaussian/g16.C.01/g16/l601.exe)
 Copying SCF densities to generalized density rwf, IOpCl= 0 IROHF=0.

 **********************************************************************

            Population analysis using the SCF Density.

 **********************************************************************

 Alpha  occ. eigenvalues --  -19.40233  -1.21174  -0.67280  -0.57522  -0.53246
 Alpha virt. eigenvalues --   -0.07086   0.05693   0.06009   0.25117   0.30486
 Alpha virt. eigenvalues --    0.35307   0.37184   0.49989   0.51023   0.57610
 Alpha virt. eigenvalues --    0.86561   1.05797   1.28806   1.46118   1.47396
 Alpha virt. eigenvalues --    1.60477   1.67214   1.72797   1.91596   1.97520
 Alpha virt. eigenvalues --    2.07273   2.11023   2.27000   2.29054   2.45232
 Alpha virt. eigenvalues --    2.60222   2.66440   2.73982   3.06939   3.65219
 Alpha virt. eigenvalues --    3.91567   5.01619   5.10856   5.16265   5.22345
 Alpha virt. eigenvalues --    5.51665   5.63615   5.92622   6.25527   6.36793
 Alpha virt. eigenvalues --    6.45756   6.63144   7.00888  43.30768
     Molecular Orbital Coefficients:
                           1         2         3         4         5
                           O         O         O         O         O
     Eigenvalues --   -19.40233  -1.21174  -0.67280  -0.57522  -0.53246
   1 1   O  1S          0.43541  -0.09564   0.02019   0.04182   0.00000
   2        2S          0.63986  -0.22543   0.04857   0.10060   0.00000
   3        3S          0.03303   0.32163  -0.07817  -0.15957  -0.00000
   4        4S         -0.02079   0.46983  -0.10264  -0.23182   0.00000
   5        5S          0.00712   0.11910  -0.07789  -0.18242  -0.00000
   6        6PX         0.00126   0.05517  -0.22693   0.35354   0.00000
   7        6PY         0.00193   0.07409   0.29600   0.20748   0.00000
   8        6PZ         0.00000   0.00000  -0.00000  -0.00000   0.45090
   9        7PX        -0.00209   0.05182  -0.19659   0.29394   0.00000
  10        7PY        -0.00329   0.07849   0.25224   0.16823   0.00000
  11        7PZ        -0.00000  -0.00000   0.00000  -0.00000   0.39090
  12        8PX         0.00071   0.00205  -0.07321   0.14119   0.00000
  13        8PY         0.00055   0.00575   0.08511   0.08113   0.00000
  14        8PZ        -0.00000   0.00000  -0.00000  -0.00000   0.19789
  15        9D 0       -0.00016  -0.00303   0.00016  -0.00414   0.00000
  16        9D+1        0.00000  -0.00000  -0.00000  -0.00000   0.00294
  17        9D-1        0.00000   0.00000  -0.00000   0.00000   0.00726
  18        9D+2       -0.00014  -0.00066  -0.01080   0.00195   0.00000
  19        9D-2        0.00004   0.00044   0.00024   0.00431   0.00000
  20       10D 0        0.00075  -0.01118  -0.00161  -0.01484  -0.00000
  21       10D+1       -0.00000  -0.00000  -0.00000  -0.00000   0.01711
  22       10D-1       -0.00000   0.00000   0.00000   0.00000   0.03110
  23       10D+2        0.00056  -0.00752  -0.03880   0.00522  -0.00000
  24       10D-2       -0.00015   0.00504  -0.00101   0.02787  -0.00000
  25       11F 0        0.00000   0.00000   0.00000  -0.00000  -0.00458
  26       11F+1        0.00013  -0.00182   0.00274  -0.00251  -0.00000
  27       11F-1        0.00000  -0.00091  -0.00265  -0.00187  -0.00000
  28       11F+2        0.00000  -0.00000  -0.00000   0.00000  -0.00223
  29       11F-2       -0.00000   0.00000   0.00000   0.00000   0.00027
  30       11F+3       -0.00015   0.00143  -0.00107  -0.00122   0.00000
  31       11F-3        0.00024  -0.00226  -0.00224  -0.00026  -0.00000
  32 2   H  1S          0.00072   0.07891  -0.11722   0.11146   0.00000
  33        2S          0.00137   0.05739  -0.12280   0.15197  -0.00000
  34        3S         -0.00152   0.00160  -0.01618   0.01742   0.00000
  35        4PX        -0.00103  -0.01689   0.01458  -0.01506   0.00000
  36        4PY         0.00021   0.00245   0.00983   0.01496  -0.00000
  37        4PZ         0.00000   0.00000   0.00000   0.00000   0.02059
  38 3   H  1S          0.00060   0.07340   0.11556   0.05109   0.08660
  39        2S          0.00116   0.06092   0.15824   0.08250   0.14140
  40        3S         -0.00070  -0.00185   0.01474   0.00840   0.03384
  41        4PX         0.00007   0.00204  -0.00662   0.01806   0.00230
  42        4PY        -0.00119  -0.01213  -0.00596  -0.00133  -0.01944
  43        4PZ        -0.00054  -0.01145  -0.02154  -0.01150   0.00416
  44 4   H  1S          0.00060   0.07340   0.11556   0.05109  -0.08660
  45        2S          0.00116   0.06092   0.15824   0.08250  -0.14140
  46        3S         -0.00070  -0.00185   0.01474   0.00840  -0.03384
  47        4PX         0.00007   0.00204  -0.00662   0.01806  -0.00230
  48        4PY        -0.00119  -0.01213  -0.00596  -0.00133   0.01944
  49        4PZ         0.00054   0.01145   0.02154   0.01150   0.00416
                           6         7         8         9        10
                           V         V         V         V         V
     Eigenvalues --    -0.07086   0.05693   0.06009   0.25117   0.30486
   1 1   O  1S         -0.03449   0.01615  -0.00000   0.00732  -0.00000
   2        2S         -0.08451   0.04066  -0.00000   0.01669  -0.00000
   3        3S          0.14870  -0.08589   0.00000  -0.01234  -0.00000
   4        4S          0.19465  -0.05056   0.00000  -0.10413   0.00000
   5        5S          0.63646  -0.44313   0.00000   0.14305  -0.00000
   6        6PX         0.02536  -0.24069   0.00000  -0.01571   0.00000
   7        6PY         0.29902   0.14422  -0.00000  -0.11805   0.00000
   8        6PZ         0.00000  -0.00000  -0.25414  -0.00000  -0.00283
   9        7PX         0.02997  -0.18759   0.00000   0.02782   0.00000
  10        7PY         0.29469   0.12621  -0.00000  -0.21450   0.00000
  11        7PZ        -0.00000  -0.00000  -0.20618   0.00000  -0.00214
  12        8PX         0.04051  -0.45048   0.00000   0.28673  -0.00000
  13        8PY         0.37817   0.24222  -0.00000  -0.27904  -0.00000
  14        8PZ         0.00000  -0.00000  -0.39766   0.00000   0.41401
  15        9D 0        0.00045  -0.00124   0.00000   0.00147  -0.00000
  16        9D+1       -0.00000  -0.00000  -0.00173  -0.00000  -0.00096
  17        9D-1        0.00000   0.00000   0.00701  -0.00000  -0.02033
  18        9D+2        0.00314   0.00622  -0.00000  -0.02109  -0.00000
  19        9D-2        0.00198  -0.00081   0.00000  -0.00092   0.00000
  20       10D 0       -0.00738  -0.00835   0.00000  -0.01580   0.00000
  21       10D+1        0.00000  -0.00000  -0.00871   0.00000   0.01031
  22       10D-1       -0.00000   0.00000   0.03459   0.00000   0.00721
  23       10D+2       -0.00575   0.02151  -0.00000   0.03165   0.00000
  24       10D-2        0.01221  -0.00597   0.00000  -0.00271  -0.00000
  25       11F 0        0.00000  -0.00000  -0.00129  -0.00000  -0.00373
  26       11F+1       -0.00064  -0.00002  -0.00000  -0.00245  -0.00000
  27       11F-1       -0.00241  -0.00122   0.00000  -0.00012  -0.00000
  28       11F+2        0.00000  -0.00000  -0.00438  -0.00000  -0.00448
  29       11F-2       -0.00000   0.00000   0.00103  -0.00000  -0.00138
  30       11F+3        0.00112   0.00311  -0.00000   0.00138   0.00000
  31       11F-3       -0.00041   0.00178  -0.00000   0.00036   0.00000
  32 2   H  1S         -0.01148   0.12039  -0.00000  -0.07502  -0.00000
  33        2S         -0.07245   0.29290  -0.00000  -0.65526  -0.00000
  34        3S         -0.15426   1.47695  -0.00000   0.96260   0.00000
  35        4PX        -0.00946   0.04341  -0.00000   0.04996   0.00000
  36        4PY         0.00376   0.00799  -0.00000  -0.00300   0.00000
  37        4PZ        -0.00000  -0.00000  -0.00165   0.00000   0.00467
  38 3   H  1S         -0.09805  -0.04895   0.14200   0.08739  -0.12221
  39        2S         -0.30541  -0.16177   0.34404   0.81868  -1.22524
  40        3S         -0.44680  -0.29586   1.43313  -0.93878   1.71926
  41        4PX        -0.00315   0.00047   0.00328   0.01086  -0.00352
  42        4PY        -0.02893  -0.01358   0.01046  -0.01504   0.04593
  43        4PZ         0.00847   0.00868   0.02485  -0.03673   0.04279
  44 4   H  1S         -0.09805  -0.04895  -0.14200   0.08739   0.12221
  45        2S         -0.30541  -0.16177  -0.34404   0.81868   1.22524
  46        3S         -0.44680  -0.29586  -1.43313  -0.93878  -1.71926
  47        4PX        -0.00315   0.00047  -0.00328   0.01086   0.00352
  48        4PY        -0.02893  -0.01358  -0.01046  -0.01504  -0.04593
  49        4PZ        -0.00847  -0.00868   0.02485   0.03673   0.04279
                          11        12        13        14        15
                           V         V         V         V         V
     Eigenvalues --     0.35307   0.37184   0.49989   0.51023   0.57610
   1 1   O  1S          0.00768   0.03932  -0.00000  -0.00623   0.03978
   2        2S          0.01757   0.08644  -0.00000  -0.01417   0.08312
   3        3S          0.00645   0.00949  -0.00000   0.00465   0.08536
   4        4S         -0.31145  -0.94355   0.00000   0.03748  -2.18457
   5        5S          0.50539   0.14359  -0.00000   0.38768   5.27196
   6        6PX        -0.21150   0.08202   0.00000   0.25074  -0.04548
   7        6PY        -0.22333   0.03905  -0.00000  -0.18448  -0.00946
   8        6PZ        -0.00000  -0.00000   0.30212  -0.00000   0.00000
   9        7PX        -0.44192   0.11145   0.00000   0.55809   0.05472
  10        7PY        -0.41938   0.09914  -0.00000  -0.38562   0.06040
  11        7PZ        -0.00000  -0.00000   0.68150  -0.00000   0.00000
  12        8PX         0.16549  -1.26183  -0.00000  -1.18849   1.44502
  13        8PY         0.94390  -0.77119  -0.00000   1.62124   1.36784
  14        8PZ         0.00000   0.00000  -1.73818   0.00000  -0.00000
  15        9D 0       -0.00187  -0.01327  -0.00000   0.00423   0.01959
  16        9D+1       -0.00000  -0.00000   0.00443  -0.00000   0.00000
  17        9D-1       -0.00000  -0.00000   0.00692  -0.00000   0.00000
  18        9D+2        0.01536   0.00661   0.00000   0.01415   0.00366
  19        9D-2       -0.00592   0.00513   0.00000   0.00020  -0.00405
  20       10D 0       -0.02028   0.02447   0.00000   0.00867   0.00830
  21       10D+1        0.00000   0.00000  -0.01056   0.00000  -0.00000
  22       10D-1        0.00000   0.00000  -0.02111   0.00000  -0.00000
  23       10D+2       -0.04031  -0.03063  -0.00000  -0.04947   0.02573
  24       10D-2       -0.00242  -0.03508  -0.00000   0.00419   0.04620
  25       11F 0       -0.00000  -0.00000   0.00123  -0.00000   0.00000
  26       11F+1        0.00272   0.00563   0.00000  -0.00026  -0.00673
  27       11F-1        0.00084  -0.00134  -0.00000   0.00125   0.00193
  28       11F+2       -0.00000  -0.00000   0.00273  -0.00000   0.00000
  29       11F-2       -0.00000  -0.00000  -0.00014   0.00000  -0.00000
  30       11F+3       -0.00205  -0.00707  -0.00000  -0.00028   0.00940
  31       11F-3       -0.00111   0.00317   0.00000  -0.00356  -0.00679
  32 2   H  1S          0.13539   0.07869  -0.00000  -0.07787   0.00842
  33        2S          1.02699   1.38755   0.00000  -0.51804  -1.56980
  34        3S         -0.81322  -0.37885   0.00000   1.77226  -0.93069
  35        4PX        -0.03698  -0.09822  -0.00000  -0.00518   0.12445
  36        4PY        -0.00600   0.01008   0.00000  -0.02364  -0.02090
  37        4PZ        -0.00000  -0.00000   0.00051  -0.00000  -0.00000
  38 3   H  1S          0.03136   0.02494  -0.06389   0.02682   0.00891
  39        2S          0.04809   0.58696  -0.20107  -0.34473  -1.00914
  40        3S         -0.33811  -0.33405   1.95823  -0.72488  -0.25371
  41        4PX        -0.00344  -0.00771  -0.00242  -0.01059  -0.00014
  42        4PY         0.04479  -0.01730  -0.01902   0.03436   0.02930
  43        4PZ        -0.00615  -0.02863  -0.00123   0.02758   0.09749
  44 4   H  1S          0.03136   0.02494   0.06389   0.02682   0.00891
  45        2S          0.04809   0.58696   0.20107  -0.34473  -1.00914
  46        3S         -0.33811  -0.33405  -1.95823  -0.72488  -0.25371
  47        4PX        -0.00344  -0.00771   0.00242  -0.01059  -0.00014
  48        4PY         0.04479  -0.01730   0.01902   0.03436   0.02930
  49        4PZ         0.00615   0.02863  -0.00123  -0.02758  -0.09749
                          16        17        18        19        20
                           V         V         V         V         V
     Eigenvalues --     0.86561   1.05797   1.28806   1.46118   1.47396
   1 1   O  1S          0.00173   0.00000   0.01223  -0.00000   0.00251
   2        2S          0.00681   0.00000   0.02937  -0.00000   0.00459
   3        3S         -0.06780  -0.00000  -0.00948   0.00000   0.04409
   4        4S          0.04904   0.00000  -0.85456   0.00000  -0.03148
   5        5S          0.65201   0.00000   2.69437  -0.00000  -1.20156
   6        6PX         0.04602  -0.00000   0.02866  -0.00000   0.05323
   7        6PY         0.04037  -0.00000  -0.04505   0.00000  -0.10521
   8        6PZ         0.00000  -0.04788   0.00000   0.06793   0.00000
   9        7PX         0.11915   0.00000  -0.06250   0.00000  -0.35265
  10        7PY         0.09625   0.00000   0.06518   0.00000   0.04597
  11        7PZ         0.00000  -0.04718  -0.00000  -0.03041   0.00000
  12        8PX         0.54377   0.00000   0.72681  -0.00000  -0.72876
  13        8PY         0.28295   0.00000   1.14937  -0.00000  -0.09252
  14        8PZ        -0.00000  -0.19686  -0.00000  -0.15820   0.00000
  15        9D 0        0.00384   0.00000  -0.00238   0.00000  -0.00181
  16        9D+1        0.00000   0.00922   0.00000   0.00018   0.00000
  17        9D-1        0.00000   0.00176   0.00000  -0.01040  -0.00000
  18        9D+2       -0.00039  -0.00000  -0.00200   0.00000  -0.00231
  19        9D-2       -0.01768   0.00000   0.00004  -0.00000  -0.00085
  20       10D 0       -0.00474  -0.00000  -0.41419  -0.00000   0.39125
  21       10D+1       -0.00000   0.55994  -0.00000   0.01484   0.00000
  22       10D-1       -0.00000  -0.01925  -0.00000  -0.85207  -0.00000
  23       10D+2        0.04640   0.00000  -0.29998   0.00000  -0.91240
  24       10D-2       -0.37659  -0.00000  -0.13555   0.00000   0.03658
  25       11F 0        0.00000   0.00490   0.00000   0.00300   0.00000
  26       11F+1       -0.00546  -0.00000   0.00425  -0.00000   0.02458
  27       11F-1       -0.00036   0.00000  -0.01715   0.00000   0.00522
  28       11F+2        0.00000   0.00371   0.00000   0.00734  -0.00000
  29       11F-2        0.00000   0.00934  -0.00000  -0.00751   0.00000
  30       11F+3        0.01625   0.00000  -0.00896   0.00000  -0.03497
  31       11F-3       -0.00053  -0.00000  -0.00971  -0.00000  -0.01442
  32 2   H  1S          0.06078   0.00000  -0.07903   0.00000  -0.38014
  33        2S         -0.59946  -0.00000  -0.74451  -0.00000   2.23675
  34        3S         -0.05667   0.00000  -0.37159   0.00000  -0.55276
  35        4PX         0.13583   0.00000  -0.05961   0.00000  -0.18058
  36        4PY        -0.37125  -0.00000  -0.01042   0.00000  -0.03448
  37        4PZ         0.00000   0.48307  -0.00000  -0.00629   0.00000
  38 3   H  1S          0.02230  -0.03111   0.12214  -0.21456   0.24932
  39        2S         -0.20930   0.14060  -1.37711   1.18610  -0.34079
  40        3S          0.00530   0.02046   0.19003  -0.64796   0.34427
  41        4PX        -0.38715   0.24883  -0.00579  -0.00896   0.01158
  42        4PY         0.02791  -0.02384   0.19208   0.26489  -0.18544
  43        4PZ         0.04584  -0.03614  -0.43440  -0.14909   0.07732
  44 4   H  1S          0.02230   0.03111   0.12214   0.21456   0.24932
  45        2S         -0.20930  -0.14060  -1.37711  -1.18610  -0.34079
  46        3S          0.00530  -0.02046   0.19003   0.64796   0.34427
  47        4PX        -0.38715  -0.24883  -0.00579   0.00896   0.01158
  48        4PY         0.02791   0.02384   0.19208  -0.26489  -0.18544
  49        4PZ        -0.04584  -0.03614   0.43440  -0.14909  -0.07732
                          21        22        23        24        25
                           V         V         V         V         V
     Eigenvalues --     1.60477   1.67214   1.72797   1.91596   1.97520
   1 1   O  1S         -0.00499  -0.01494  -0.00000  -0.03374  -0.00000
   2        2S         -0.01462  -0.04419  -0.00000  -0.11340  -0.00000
   3        3S          0.08372   0.19159   0.00000   0.77569   0.00000
   4        4S         -0.15772  -0.12261  -0.00000  -1.48430   0.00000
   5        5S         -0.18400  -0.30328  -0.00000   0.14025   0.00000
   6        6PX        -0.04097   0.05572   0.00000   0.27031  -0.00000
   7        6PY         0.10099   0.09683   0.00000   0.39948  -0.00000
   8        6PZ         0.00000   0.00000   0.07802   0.00000  -0.09139
   9        7PX        -0.23514  -0.11865  -0.00000  -0.81900   0.00000
  10        7PY         0.14700   0.02233  -0.00000  -0.39710   0.00000
  11        7PZ        -0.00000   0.00000   0.05011  -0.00000  -0.28826
  12        8PX        -0.55873  -0.23353  -0.00000  -0.25333   0.00000
  13        8PY         0.27245  -0.20798  -0.00000  -0.00515   0.00000
  14        8PZ         0.00000  -0.00000   0.23736  -0.00000  -0.27707
  15        9D 0       -0.00090  -0.00061   0.00000   0.00021   0.00000
  16        9D+1       -0.00000   0.00000  -0.00677   0.00000   0.00134
  17        9D-1       -0.00000   0.00000  -0.00363   0.00000   0.02216
  18        9D+2        0.01049   0.00376  -0.00000   0.01152   0.00000
  19        9D-2       -0.00575   0.00069   0.00000   0.00691  -0.00000
  20       10D 0        0.15651   0.89431  -0.00000  -0.15328  -0.00000
  21       10D+1       -0.00000   0.00000   0.04847  -0.00000  -0.72380
  22       10D-1       -0.00000  -0.00000   0.01653  -0.00000  -0.19914
  23       10D+2       -0.09731   0.05177  -0.00000  -0.46318  -0.00000
  24       10D-2       -0.19907   0.13735  -0.00000  -0.34295   0.00000
  25       11F 0       -0.00000  -0.00000  -0.00518   0.00000   0.05339
  26       11F+1        0.01973   0.01316   0.00000   0.04655  -0.00000
  27       11F-1        0.00248  -0.00701   0.00000   0.00205   0.00000
  28       11F+2       -0.00000  -0.00000  -0.02107   0.00000   0.08667
  29       11F-2        0.00000  -0.00000   0.02820  -0.00000   0.01336
  30       11F+3       -0.03921  -0.00386  -0.00000  -0.06133   0.00000
  31       11F-3       -0.01997  -0.00340   0.00000   0.02475  -0.00000
  32 2   H  1S         -0.21045  -0.16395  -0.00000  -0.68322   0.00000
  33        2S          0.91347   0.81819   0.00000   1.99181  -0.00000
  34        3S         -0.05192  -0.17124  -0.00000  -0.50020   0.00000
  35        4PX        -0.28083  -0.01399  -0.00000  -0.51637   0.00000
  36        4PY        -0.73202   0.05084   0.00000   0.30499  -0.00000
  37        4PZ        -0.00000  -0.00000  -0.63230   0.00000   0.53330
  38 3   H  1S          0.06165  -0.13946   0.11753  -0.53017  -0.69631
  39        2S         -0.18029   0.19882  -0.35552   0.70096   1.56854
  40        3S         -0.01441  -0.06336   0.07215  -0.31491  -0.70220
  41        4PX         0.50421  -0.09899   0.68034   0.05372   0.33906
  42        4PY         0.14391   0.31549   0.05089   0.12543  -0.36681
  43        4PZ         0.02014  -0.32704   0.09687   0.17356  -0.15668
  44 4   H  1S          0.06165  -0.13946  -0.11753  -0.53017   0.69631
  45        2S         -0.18029   0.19882   0.35552   0.70096  -1.56854
  46        3S         -0.01441  -0.06336  -0.07215  -0.31491   0.70220
  47        4PX         0.50421  -0.09899  -0.68034   0.05372  -0.33906
  48        4PY         0.14391   0.31549  -0.05089   0.12543   0.36681
  49        4PZ        -0.02014   0.32704   0.09687  -0.17356  -0.15668
                          26        27        28        29        30
                           V         V         V         V         V
     Eigenvalues --     2.07273   2.11023   2.27000   2.29054   2.45232
   1 1   O  1S         -0.00000   0.00023   0.01406  -0.00000   0.01724
   2        2S         -0.00000   0.00827   0.02766  -0.00000   0.03576
   3        3S          0.00000  -0.15831   0.20898   0.00000   0.22620
   4        4S          0.00000   0.02243  -0.90097  -0.00000  -1.16452
   5        5S          0.00000   1.86278  -1.47482  -0.00000  -1.42037
   6        6PX         0.00000   0.21575   0.50496   0.00000  -0.76953
   7        6PY         0.00000   0.42752  -0.45670  -0.00000   0.08546
   8        6PZ         0.00522   0.00000  -0.00000   0.77892   0.00000
   9        7PX         0.00000  -0.12571  -1.36826  -0.00000  -0.15644
  10        7PY         0.00000  -0.10821   0.14361   0.00000  -0.36386
  11        7PZ        -0.23585  -0.00000   0.00000  -0.91711  -0.00000
  12        8PX         0.00000   0.73764   0.25765   0.00000  -0.99937
  13        8PY         0.00000   1.18643  -1.09392  -0.00000  -0.13583
  14        8PZ         0.04594   0.00000  -0.00000   0.98174   0.00000
  15        9D 0       -0.00000  -0.00503  -0.00943  -0.00000  -0.01887
  16        9D+1       -0.00014  -0.00000  -0.00000   0.00539   0.00000
  17        9D-1        0.02230  -0.00000  -0.00000  -0.00222  -0.00000
  18        9D+2        0.00000   0.00974   0.00331   0.00000   0.02108
  19        9D-2        0.00000   0.00848   0.00598   0.00000   0.00300
  20       10D 0       -0.00000  -0.34913   0.20805   0.00000   0.42670
  21       10D+1        0.69677  -0.00000  -0.00000   0.10892  -0.00000
  22       10D-1       -0.29784   0.00000  -0.00000   0.75555   0.00000
  23       10D+2       -0.00000  -0.27773   0.52583   0.00000  -0.54216
  24       10D-2        0.00000   1.02317   0.26977   0.00000   0.23559
  25       11F 0        0.06075  -0.00000  -0.00000   0.00702   0.00000
  26       11F+1       -0.00000  -0.00541   0.06350   0.00000   0.06537
  27       11F-1       -0.00000  -0.00353   0.00796   0.00000   0.00550
  28       11F+2        0.06008  -0.00000  -0.00000   0.02052   0.00000
  29       11F-2       -0.00786   0.00000  -0.00000   0.00500  -0.00000
  30       11F+3        0.00000   0.01202  -0.06664  -0.00000  -0.07152
  31       11F-3       -0.00000  -0.03009   0.02466   0.00000   0.02179
  32 2   H  1S          0.00000   0.02760  -0.72500  -0.00000  -0.04307
  33        2S         -0.00000  -0.78407   2.04262   0.00000   2.07701
  34        3S          0.00000  -0.11369  -0.80173  -0.00000   0.28026
  35        4PX         0.00000   0.14204  -0.75803  -0.00000  -1.51060
  36        4PY        -0.00000  -0.74313  -0.14533  -0.00000  -0.12265
  37        4PZ        -0.64478   0.00000   0.00000  -0.11070   0.00000
  38 3   H  1S         -0.58378   0.05209   0.03506  -0.38536  -0.22036
  39        2S          1.05978  -0.84645   0.74806   0.39057   0.59544
  40        3S         -0.62239  -0.07806   0.29578  -0.87212  -0.15150
  41        4PX        -0.24320  -0.34868  -0.13750  -0.03212  -0.15381
  42        4PY        -0.46247   0.30164  -0.46283   0.53451  -0.18375
  43        4PZ         0.21675   0.12324  -0.16996  -0.28344  -0.06196
  44 4   H  1S          0.58378   0.05209   0.03506   0.38536  -0.22036
  45        2S         -1.05978  -0.84645   0.74806  -0.39057   0.59544
  46        3S          0.62239  -0.07806   0.29578   0.87212  -0.15150
  47        4PX         0.24320  -0.34868  -0.13750   0.03212  -0.15381
  48        4PY         0.46247   0.30164  -0.46283  -0.53451  -0.18375
  49        4PZ         0.21675  -0.12324   0.16996  -0.28344   0.06196
                          31        32        33        34        35
                           V         V         V         V         V
     Eigenvalues --     2.60222   2.66440   2.73982   3.06939   3.65219
   1 1   O  1S         -0.05386   0.09503  -0.00000  -0.00000   0.03200
   2        2S         -0.16447   0.32811  -0.00000  -0.00000   0.12972
   3        3S          0.79418  -2.16489   0.00000   0.00000  -1.41230
   4        4S         -0.96971   3.17284  -0.00000  -0.00000   3.00614
   5        5S          2.17584  -2.69740   0.00000   0.00000  -0.28444
   6        6PX        -0.15716   0.29125  -0.00000  -0.00000  -0.68581
   7        6PY        -0.26717   0.44524  -0.00000  -0.00000   0.14951
   8        6PZ         0.00000  -0.00000  -0.59886  -0.72921   0.00000
   9        7PX        -0.23633  -1.00469   0.00000   0.00000   2.71068
  10        7PY         1.47899  -0.27338   0.00000   0.00000  -0.39386
  11        7PZ        -0.00000   0.00000   0.58942   1.89145  -0.00000
  12        8PX         0.31563  -0.36966   0.00000   0.00000  -0.04541
  13        8PY         0.47707  -0.18917  -0.00000   0.00000   0.03895
  14        8PZ        -0.00000   0.00000  -0.23301  -0.28763   0.00000
  15        9D 0       -0.00053   0.00811  -0.00000  -0.00000   0.01356
  16        9D+1        0.00000   0.00000   0.00789   0.00234  -0.00000
  17        9D-1        0.00000   0.00000   0.04121  -0.04166  -0.00000
  18        9D+2        0.07941   0.04791  -0.00000  -0.00000  -0.01558
  19        9D-2        0.00030  -0.00888   0.00000  -0.00000   0.03233
  20       10D 0       -0.15606   0.28193  -0.00000  -0.00000  -0.63910
  21       10D+1       -0.00000   0.00000   0.25663   0.06669  -0.00000
  22       10D-1       -0.00000   0.00000  -0.01312   1.17103  -0.00000
  23       10D+2       -0.54180  -0.33613   0.00000   0.00000   1.30705
  24       10D-2        0.00246  -0.32203   0.00000   0.00000   0.11398
  25       11F 0       -0.00000   0.00000   0.02623   0.05988  -0.00000
  26       11F+1        0.04490   0.02713  -0.00000   0.00000   0.17098
  27       11F-1       -0.01301   0.00057   0.00000  -0.00000   0.00082
  28       11F+2       -0.00000   0.00000   0.05690   0.03129  -0.00000
  29       11F-2       -0.00000   0.00000   0.00244   0.00608   0.00000
  30       11F+3       -0.03924  -0.03720   0.00000   0.00000  -0.15052
  31       11F-3       -0.09313  -0.03089   0.00000  -0.00000  -0.00774
  32 2   H  1S         -0.27830  -0.03627  -0.00000  -0.00000  -1.05277
  33        2S          0.58147   1.37465  -0.00000  -0.00000  -2.02939
  34        3S         -0.63672   0.13008  -0.00000  -0.00000   0.48797
  35        4PX        -0.49907  -0.72036   0.00000   0.00000   1.80256
  36        4PY         0.14582   0.38255  -0.00000  -0.00000   0.03505
  37        4PZ         0.00000  -0.00000  -0.39869  -0.13367   0.00000
  38 3   H  1S          0.74052   0.35913  -0.24799  -0.16436   0.07893
  39        2S         -1.93536  -0.32197   1.49056  -1.87180   0.13357
  40        3S          0.33208   0.28748  -0.27305   0.68690  -0.05399
  41        4PX        -0.10585   0.09939  -0.03353  -0.00183  -0.19552
  42        4PY         0.84282   0.24511  -0.00589   1.02925  -0.12562
  43        4PZ         0.35871   0.12114  -1.27484   0.89751  -0.05250
  44 4   H  1S          0.74052   0.35913   0.24799   0.16436   0.07893
  45        2S         -1.93536  -0.32197  -1.49056   1.87180   0.13357
  46        3S          0.33208   0.28748   0.27305  -0.68690  -0.05399
  47        4PX        -0.10585   0.09939   0.03353   0.00183  -0.19552
  48        4PY         0.84282   0.24511   0.00589  -1.02925  -0.12562
  49        4PZ        -0.35871  -0.12114  -1.27484   0.89751   0.05250
                          36        37        38        39        40
                           V         V         V         V         V
     Eigenvalues --     3.91567   5.01619   5.10856   5.16265   5.22345
   1 1   O  1S          0.05547  -0.00040  -0.00000  -0.00185  -0.00000
   2        2S          0.21219  -0.00205  -0.00000  -0.00471  -0.00000
   3        3S         -2.08634   0.03471   0.00000   0.02562   0.00000
   4        4S          3.50600  -0.07257  -0.00000  -0.09142  -0.00000
   5        5S          0.31060  -0.09581   0.00000   0.44904  -0.00000
   6        6PX        -0.02121   0.04928   0.00000  -0.00132  -0.00000
   7        6PY        -0.90959  -0.00844   0.00000   0.00551   0.00000
   8        6PZ         0.00000   0.00000  -0.00244  -0.00000   0.05195
   9        7PX         0.13548  -0.16158  -0.00000   0.01979   0.00000
  10        7PY         2.76791   0.02676  -0.00000   0.04497  -0.00000
  11        7PZ        -0.00000  -0.00000   0.00810   0.00000  -0.17455
  12        8PX         0.14021  -0.08928   0.00000   0.11879  -0.00000
  13        8PY         0.16349  -0.01988   0.00000   0.16257  -0.00000
  14        8PZ         0.00000   0.00000  -0.00171  -0.00000  -0.05588
  15        9D 0       -0.01174   0.03076  -0.00000   0.10445   0.00000
  16        9D+1       -0.00000   0.00000   0.11606   0.00000  -0.18930
  17        9D-1       -0.00000  -0.00000   0.01046   0.00000  -0.01526
  18        9D+2       -0.04973  -0.01935   0.00000   0.05262   0.00000
  19        9D-2        0.05889  -0.11572  -0.00000   0.00148  -0.00000
  20       10D 0       -0.33495   0.02060   0.00000  -0.01137   0.00000
  21       10D+1       -0.00000   0.00000   0.01052   0.00000  -0.05176
  22       10D-1       -0.00000  -0.00000  -0.01389   0.00000  -0.06896
  23       10D+2       -1.03530  -0.07759  -0.00000  -0.02186   0.00000
  24       10D-2        0.21648  -0.01826   0.00000  -0.00165   0.00000
  25       11F 0        0.00000  -0.00000  -0.06950  -0.00000   0.85715
  26       11F+1        0.01433   0.77792  -0.00000  -0.02593   0.00000
  27       11F-1       -0.03884   0.04478   0.00000   1.00771   0.00000
  28       11F+2       -0.00000   0.00000   0.03180   0.00000  -0.54605
  29       11F-2        0.00000   0.00000   1.01060  -0.00000   0.09527
  30       11F+3       -0.02099   0.62917  -0.00000  -0.04151  -0.00000
  31       11F-3        0.20712  -0.00255  -0.00000   0.16176  -0.00000
  32 2   H  1S          0.00072   0.07004  -0.00000   0.02746   0.00000
  33        2S         -0.32315   0.14657   0.00000  -0.18637  -0.00000
  34        3S         -0.00730   0.00253  -0.00000  -0.03815   0.00000
  35        4PX         0.10853  -0.08862  -0.00000   0.01976  -0.00000
  36        4PY        -0.43020  -0.00416   0.00000   0.02537   0.00000
  37        4PZ         0.00000  -0.00000  -0.01366  -0.00000   0.32628
  38 3   H  1S         -0.49538  -0.01594   0.00086   0.05957   0.01444
  39        2S         -1.15885   0.01586  -0.01422  -0.26802   0.22579
  40        3S          0.16085  -0.00121   0.00583   0.03031  -0.05567
  41        4PX        -0.03474   0.11891  -0.19193  -0.01493  -0.02396
  42        4PY         1.07905   0.01135  -0.00017   0.11466  -0.04701
  43        4PZ         0.44964   0.00283   0.01626  -0.13663  -0.15138
  44 4   H  1S         -0.49538  -0.01594  -0.00086   0.05957  -0.01444
  45        2S         -1.15885   0.01586   0.01422  -0.26802  -0.22579
  46        3S          0.16085  -0.00121  -0.00583   0.03031   0.05567
  47        4PX        -0.03474   0.11891   0.19193  -0.01493   0.02396
  48        4PY         1.07905   0.01135   0.00017   0.11466   0.04701
  49        4PZ        -0.44964  -0.00283   0.01626   0.13663  -0.15138
                          41        42        43        44        45
                           V         V         V         V         V
     Eigenvalues --     5.51665   5.63615   5.92622   6.25527   6.36793
   1 1   O  1S          0.01780   0.00000   0.01850   0.00000   0.01192
   2        2S          0.06090   0.00000   0.06481   0.00000   0.04091
   3        3S         -0.68094   0.00000  -0.85037  -0.00000  -0.54560
   4        4S          1.13275  -0.00000   1.77395   0.00000   1.05092
   5        5S          0.26392  -0.00000   0.09205  -0.00000   0.33164
   6        6PX         0.01444   0.00000  -0.23866  -0.00000  -0.09690
   7        6PY        -0.27881   0.00000  -0.07050  -0.00000  -0.09140
   8        6PZ         0.00000   0.15130   0.00000   0.01092  -0.00000
   9        7PX        -0.07525  -0.00000   1.23032   0.00000   0.54893
  10        7PY         1.00162  -0.00000   0.26055   0.00000   0.34260
  11        7PZ        -0.00000  -0.55850  -0.00000  -0.03340   0.00000
  12        8PX         0.11355  -0.00000  -0.06024  -0.00000   0.01613
  13        8PY         0.01304  -0.00000   0.10552  -0.00000   0.11613
  14        8PZ         0.00000   0.03969   0.00000  -0.05605  -0.00000
  15        9D 0       -0.12333   0.00000  -0.61145  -0.00000   0.49847
  16        9D+1       -0.00000   0.09075  -0.00000   1.16150   0.00000
  17        9D-1       -0.00000  -0.54341  -0.00000   0.00273   0.00000
  18        9D+2       -0.37480  -0.00000   0.40359   0.00000   0.21856
  19        9D-2       -0.17446   0.00000  -0.19737  -0.00000   0.92618
  20       10D 0       -0.06122   0.00000  -0.04400   0.00000  -0.51395
  21       10D+1        0.00000  -0.02075   0.00000  -0.77027  -0.00000
  22       10D-1        0.00000  -0.21133   0.00000   0.02248  -0.00000
  23       10D+2       -0.29272   0.00000   0.23118  -0.00000  -0.04659
  24       10D-2        0.02079  -0.00000   0.10987   0.00000  -0.68036
  25       11F 0       -0.00000   0.51107   0.00000   0.12884   0.00000
  26       11F+1        0.02700   0.00000  -0.49389  -0.00000  -0.19231
  27       11F-1        0.17831  -0.00000   0.07061   0.00000   0.00829
  28       11F+2        0.00000   0.80578   0.00000  -0.21319   0.00000
  29       11F-2       -0.00000   0.00330  -0.00000  -0.10823   0.00000
  30       11F+3       -0.09330  -0.00000   0.63877   0.00000   0.38960
  31       11F-3       -0.95508   0.00000  -0.09512  -0.00000  -0.35395
  32 2   H  1S          0.05265   0.00000  -0.72298  -0.00000  -0.32661
  33        2S         -0.08985   0.00000  -0.75680  -0.00000  -0.52491
  34        3S         -0.03034   0.00000   0.12343   0.00000   0.06029
  35        4PX        -0.07495  -0.00000   0.95365   0.00000   0.44550
  36        4PY         0.19979   0.00000  -0.03435  -0.00000   0.21937
  37        4PZ        -0.00000  -0.05774  -0.00000   0.28179   0.00000
  38 3   H  1S         -0.27853   0.25175  -0.07663  -0.01242  -0.12129
  39        2S         -0.38543   0.57316  -0.16505  -0.03661  -0.23248
  40        3S          0.02072  -0.16168  -0.00569   0.02463  -0.00859
  41        4PX        -0.03416   0.00429   0.01574   0.11156   0.14141
  42        4PY         0.48742  -0.45865   0.13603   0.02741   0.16826
  43        4PZ         0.21040  -0.38818   0.01948   0.03388   0.11766
  44 4   H  1S         -0.27853  -0.25175  -0.07663   0.01242  -0.12129
  45        2S         -0.38543  -0.57316  -0.16505   0.03661  -0.23248
  46        3S          0.02072   0.16168  -0.00569  -0.02463  -0.00859
  47        4PX        -0.03416  -0.00429   0.01574  -0.11156   0.14141
  48        4PY         0.48742   0.45865   0.13603  -0.02741   0.16826
  49        4PZ        -0.21040  -0.38818  -0.01948   0.03388  -0.11766
                          46        47        48        49
                           V         V         V         V
     Eigenvalues --     6.45756   6.63144   7.00888  43.30768
   1 1   O  1S          0.01278  -0.00000  -0.00100  -1.39191
   2        2S          0.04535  -0.00000   0.00095   1.70456
   3        3S         -0.63459   0.00000  -0.11224  -1.64705
   4        4S          1.08779  -0.00000   0.54174   1.80181
   5        5S          1.26431   0.00000  -0.16180  -0.63763
   6        6PX        -0.16047   0.00000  -0.27273  -0.03291
   7        6PY        -0.17156   0.00000   0.26110  -0.05898
   8        6PZ        -0.00000  -0.16288  -0.00000   0.00000
   9        7PX         0.83008  -0.00000   1.35889   0.18692
  10        7PY         0.63495  -0.00000  -0.93611   0.25873
  11        7PZ         0.00000   0.60719   0.00000  -0.00000
  12        8PX         0.41173  -0.00000   0.21354  -0.05285
  13        8PY         0.51513  -0.00000  -0.26561  -0.03114
  14        8PZ         0.00000   0.18926  -0.00000   0.00000
  15        9D 0        0.87405  -0.00000   0.14605   0.01048
  16        9D+1        0.00000  -0.04687   0.00000   0.00000
  17        9D-1       -0.00000  -1.09242  -0.00000   0.00000
  18        9D+2        0.27291  -0.00000  -1.07486   0.01232
  19        9D-2       -0.71635   0.00000  -0.00136  -0.00361
  20       10D 0       -0.86756   0.00000  -0.35771  -0.07901
  21       10D+1       -0.00000   0.04722  -0.00000  -0.00000
  22       10D-1        0.00000   1.23682   0.00000  -0.00000
  23       10D+2       -0.07922  -0.00000   1.83486  -0.04010
  24       10D-2        0.58665  -0.00000  -0.00085   0.01135
  25       11F 0       -0.00000  -0.35974   0.00000   0.00000
  26       11F+1       -0.26405   0.00000  -0.40870  -0.02066
  27       11F-1       -0.08086   0.00000   0.00075   0.00102
  28       11F+2       -0.00000  -0.52143  -0.00000   0.00000
  29       11F-2       -0.00000   0.00698   0.00000  -0.00000
  30       11F+3        0.19008  -0.00000   0.49535   0.02523
  31       11F-3       -0.11263   0.00000   0.30727  -0.03152
  32 2   H  1S         -0.36674   0.00000  -0.90642  -0.08296
  33        2S         -1.14148   0.00000  -1.18384  -0.14849
  34        3S          0.02741  -0.00000   0.14866   0.14290
  35        4PX         0.59331  -0.00000   0.94829   0.12705
  36        4PY        -0.23767   0.00000   0.04888  -0.01373
  37        4PZ        -0.00000  -0.04033   0.00000   0.00000
  38 3   H  1S         -0.14487  -0.27939   0.34089  -0.05608
  39        2S         -0.58780  -0.77729   0.47717  -0.10655
  40        3S         -0.01404   0.13650  -0.02450   0.05915
  41        4PX        -0.13920  -0.00659  -0.03011  -0.00459
  42        4PY         0.24700   0.53184  -0.40094   0.11936
  43        4PZ         0.15904   0.20006  -0.19709   0.05406
  44 4   H  1S         -0.14487   0.27939   0.34089  -0.05608
  45        2S         -0.58780   0.77729   0.47717  -0.10655
  46        3S         -0.01404  -0.13650  -0.02450   0.05915
  47        4PX        -0.13920   0.00659  -0.03011  -0.00459
  48        4PY         0.24700  -0.53184  -0.40094   0.11936
  49        4PZ        -0.15904   0.20006   0.19709  -0.05406
          Condensed to atoms (all electrons):
               1          2          3          4
     1  O    7.608459   0.281726   0.209587   0.209587
     2  H    0.281726   0.273933  -0.002163  -0.002163
     3  H    0.209587  -0.002163   0.317491   0.044738
     4  H    0.209587  -0.002163   0.044738   0.317491
 Mulliken charges:
               1
     1  O   -0.309358
     2  H    0.448666
     3  H    0.430346
     4  H    0.430346
 Sum of Mulliken charges =   1.00000
 Mulliken charges with hydrogens summed into heavy atoms:
               1
     1  O    1.000000
 Electronic spatial extent (au):  <R**2>=             20.1545
 Charge=              1.0000 electrons
 Dipole moment (field-independent basis, Debye):
    X=              2.2730    Y=              4.2407    Z=              0.0000  Tot=              4.8115
 Quadrupole moment (field-independent basis, Debye-Ang):
   XX=             -3.7859   YY=             -1.2285   ZZ=             -5.2829
   XY=             -0.1411   XZ=             -0.0000   YZ=              0.0000
 Traceless Quadrupole moment (field-independent basis, Debye-Ang):
   XX=             -0.3535   YY=              2.2040   ZZ=             -1.8505
   XY=             -0.1411   XZ=             -0.0000   YZ=              0.0000
 Octapole moment (field-independent basis, Debye-Ang**2):
  XXX=              1.7427  YYY=              2.8953  ZZZ=             -0.0000  XYY=             -0.3219
  XXY=             -0.7586  XXZ=             -0.0000  XZZ=             -0.3152  YZZ=              0.5573
  YYZ=              0.0000  XYZ=              0.0000
 Hexadecapole moment (field-independent basis, Debye-Ang**3):
 XXXX=             -2.9948 YYYY=             -2.3579 ZZZZ=             -5.2773 XXXY=             -0.1080
 XXXZ=             -0.0000 YYYX=             -0.1108 YYYZ=              0.0000 ZZZX=             -0.0000
 ZZZY=             -0.0000 XXYY=             -2.3316 XXZZ=             -1.9485 YYZZ=             -0.7756
 XXYZ=             -0.0000 YYXZ=             -0.0000 ZZXY=             -0.0350
 N-N= 1.304113229371D+01 E-N=-2.028212008417D+02  KE= 7.611091001854D+01
 Orbital energies and kinetic energies (alpha):
                                 1                 2
   1         O               -19.402330         29.118677
   2         O                -1.211741          2.577380
   3         O                -0.672797          1.856703
   4         O                -0.575219          2.321342
   5         O                -0.532457          2.181354
   6         V                -0.070862          1.506684
   7         V                 0.056930          1.133700
   8         V                 0.060089          1.081035
   9         V                 0.251171          0.813186
  10         V                 0.304862          0.848398
  11         V                 0.353066          1.605178
  12         V                 0.371840          1.145799
  13         V                 0.499895          1.517407
  14         V                 0.510233          1.591277
  15         V                 0.576105          1.310984
  16         V                 0.865608          1.763167
  17         V                 1.057968          1.953897
  18         V                 1.288059          2.139329
  19         V                 1.461177          2.426235
  20         V                 1.473963          2.558388
  21         V                 1.604774          2.478335
  22         V                 1.672138          2.722640
  23         V                 1.727966          2.530349
  24         V                 1.915956          4.102763
  25         V                 1.975197          3.183253
  26         V                 2.072728          3.150981
  27         V                 2.110234          3.699712
  28         V                 2.270002          4.534837
  29         V                 2.290542          4.846360
  30         V                 2.452322          5.089255
  31         V                 2.602222          4.591824
  32         V                 2.664405          6.455402
  33         V                 2.739816          4.468599
  34         V                 3.069387          5.031132
  35         V                 3.652185          6.013040
  36         V                 3.915673          7.351452
  37         V                 5.016186          6.543015
  38         V                 5.108557          6.629073
  39         V                 5.162651          6.695619
  40         V                 5.223451          6.782232
  41         V                 5.516650          7.644507
  42         V                 5.636154          7.785377
  43         V                 5.926223          8.587458
  44         V                 6.255267          9.354124
  45         V                 6.367931          9.288850
  46         V                 6.457560          9.604091
  47         V                 6.631443          9.461821
  48         V                 7.008876          9.940857
  49         V                43.307678        108.434136
 Total kinetic energy from orbitals= 7.611091001854D+01
 No NMR shielding tensors so no spin-rotation constants.
 Leave Link  601 at Thu May  2 22:38:55 2024, MaxMem=  2097152000 cpu:               2.4 elap:               0.2
 (Enter /home/pcmt/gaussian/g16.C.01/g16/l701.exe)
 ... and contract with generalized density number  0.
 Compute integral first derivatives.
 D1PCM: C-PCM CHGder 1st derivatives, ID1Alg=3 FixD1E=F DoIter=F DoCFld=F I1PDM=0.
 GePol: Maximum number of non-zero 1st derivatives   =     155
 Leave Link  701 at Thu May  2 22:38:55 2024, MaxMem=  2097152000 cpu:               5.0 elap:               0.4
 (Enter /home/pcmt/gaussian/g16.C.01/g16/l702.exe)
 L702 exits ... SP integral derivatives will be done elsewhere.
 Leave Link  702 at Thu May  2 22:38:55 2024, MaxMem=  2097152000 cpu:               0.4 elap:               0.1
 (Enter /home/pcmt/gaussian/g16.C.01/g16/l703.exe)
[...]
     XX                                                                                          X                                   
     XX                                                                                          X                                   
     XX                                                                                          X                                   
     XX                                                                                          X                                   
     XX                                                                                          X                                   
     XX                                                                                          X                                   
                                                                                                 X                                   
 
 
                                                        h2o.pbe0.optg-freq.chk
                                                            Raman Spectrum
 
     33 3                                                                 11                     1                                   
     77 6                                                                 76                     0                                   
     11 5                                                                 07                     4                                   
     98 1                                                                 41                     6                                   
 
     XX X                                                                 XX                     X                                   
     XX X                                                                                                                            
     XX X                                                                                                                            
     XX X                                                                                                                            
     XX X                                                                                                                            
        X                                                                                                                            
        X                                                                                                                            
        X                                                                                                                            
        X                                                                                                                            
        X                                                                                                                            
        X                                                                                                                            
        X                                                                                                                            
        X                                                                                                                            
        X                                                                                                                            
        X                                                                                                                            
        X                                                                                                                            
        X                                                                                                                            
        X                                                                                                                            
        X                                                                                                                            
        X                                                                                                                            
 
 -------------------------------------------------------------------
 Center     Atomic                   Forces (Hartrees/Bohr)
 Number     Number              X              Y              Z
 -------------------------------------------------------------------
      1        8          -0.000058330   -0.000292691   -0.000193215
      2        1           0.000091426   -0.000091793    0.000064711
      3        1          -0.000000305    0.000186400    0.000048994
      4        1          -0.000032791    0.000198084    0.000079511
 -------------------------------------------------------------------
 Cartesian Forces:  Max     0.000292691 RMS     0.000138791
 Force constants in Cartesian coordinates: 
                1             2             3             4             5 
      1  0.498561D+00
      2 -0.253069D+00  0.441649D+00
      3  0.181324D-02  0.252923D-02  0.735133D+00
      4 -0.410997D+00  0.177484D+00  0.238851D-02  0.416168D+00
      5  0.129641D+00 -0.751963D-01 -0.978380D-03 -0.172975D+00  0.940390D-01
      6  0.242382D-02 -0.137985D-02 -0.749069D-01 -0.253963D-02  0.127071D-02
      7 -0.435170D-01  0.362321D-01  0.115760D-01 -0.225952D-02  0.217591D-01
      8  0.599881D-01 -0.183946D+00 -0.210880D+00 -0.233839D-02 -0.942140D-02
      9  0.391936D-01 -0.180934D+00 -0.330282D+00  0.206333D-02 -0.579181D-03
     10 -0.440468D-01  0.393534D-01 -0.157777D-01 -0.291117D-02  0.215743D-01
     11  0.634398D-01 -0.182507D+00  0.209329D+00 -0.217061D-02 -0.942138D-02
     12 -0.434307D-01  0.179785D+00 -0.329944D+00 -0.191221D-02  0.286850D-03
                6             7             8             9            10 
      6  0.656147D-01
      7  0.345447D-01  0.452292D-01
      8 -0.107577D-01 -0.506295D-01  0.176243D+00
      9  0.436071D-02 -0.434770D-01  0.201530D+00  0.350707D+00
     10 -0.344289D-01  0.547306D-03 -0.702029D-02  0.222008D-02  0.464107D-01
     11  0.108668D-01 -0.736173D-02  0.171247D-01 -0.200159D-01 -0.539075D-01
     12  0.493153D-02 -0.264372D-02  0.201080D-01 -0.247854D-01  0.479866D-01
               11            12 
     11  0.174803D+00
     12 -0.200180D+00  0.349798D+00
 FormGI is forming the generalized inverse of G from B-inverse, IUseBI=4.
 Force constants in internal coordinates: 
                1             2             3             4             5 
      1  0.491537D+00
      2  0.354956D-02  0.492588D+00
      3  0.356763D-02  0.370006D-02  0.491901D+00
      4  0.512639D-02  0.495373D-02 -0.575321D-02  0.554529D-01
      5  0.136638D-01 -0.421295D-03  0.149826D-01 -0.441166D-01  0.118743D+00
      6 -0.117741D-02  0.134888D-01  0.150001D-01 -0.413033D-01 -0.205828D-01
      7 -0.137816D-01 -0.138903D-01 -0.110396D-01 -0.161548D-01 -0.547842D-02
                6             7 
      6  0.116076D+00
      7 -0.700671D-02  0.272049D-01
 Leave Link  716 at Thu May  2 22:39:22 2024, MaxMem=  2097152000 cpu:               1.1 elap:               0.1
 (Enter /home/pcmt/gaussian/g16.C.01/g16/l103.exe)

 GradGradGradGradGradGradGradGradGradGradGradGradGradGradGradGradGradGrad
 Berny optimization.
 Red2BG is reusing G-inverse.
 Internal  Forces:  Max     0.000245628 RMS     0.000130276
 Search for a local minimum.
 Step number   1 out of a maximum of    2
 All quantities printed in internal units (Hartrees-Bohrs-Radians)
 Second derivative matrix not updated -- analytic derivatives used.
 The second derivative matrix:
                          R1        R2        R3        A1        A2
           R1           0.49154
           R2           0.00355   0.49259
           R3           0.00357   0.00370   0.49190
           A1           0.00513   0.00495  -0.00575   0.05545
           A2           0.01366  -0.00042   0.01498  -0.04412   0.11874
           A3          -0.00118   0.01349   0.01500  -0.04130  -0.02058
           D1          -0.01378  -0.01389  -0.01104  -0.01615  -0.00548
                          A3        D1
           A3           0.11608
           D1          -0.00701   0.02720
 ITU=  0
     Eigenvalues ---    0.03780   0.13572   0.14048   0.48867   0.48921
     Eigenvalues ---    0.50162
 Angle between quadratic step and forces=  40.38 degrees.
 Linear search not attempted -- first point.
 Iteration  1 RMS(Cart)=  0.00087381 RMS(Int)=  0.00000111
 Iteration  2 RMS(Cart)=  0.00000089 RMS(Int)=  0.00000058
 ITry= 1 IFail=0 DXMaxC= 1.31D-03 DCOld= 1.00D+10 DXMaxT= 3.00D-01 DXLimC= 3.00D+00 Rises=F
 Variable       Old X    -DE/DX   Delta X   Delta X   Delta X     New X
                                 (Linear)    (Quad)   (Total)
    R1        1.84503   0.00013   0.00000   0.00032   0.00032   1.84535
    R2        1.84552   0.00015   0.00000   0.00042   0.00042   1.84595
    R3        1.84568   0.00004   0.00000   0.00016   0.00016   1.84585
    A1        1.90680   0.00001   0.00000  -0.00074  -0.00074   1.90606
    A2        1.90648   0.00012   0.00000   0.00034   0.00034   1.90682
    A3        1.90974  -0.00025   0.00000  -0.00226  -0.00226   1.90748
    D1       -2.08665   0.00007   0.00000   0.00205   0.00205  -2.08460
         Item               Value     Threshold  Converged?
 Maximum Force            0.000246     0.000450     YES
 RMS     Force            0.000130     0.000300     YES
 Maximum Displacement     0.001308     0.001800     YES
 RMS     Displacement     0.000874     0.001200     YES
 Predicted change in Energy=-4.213791D-07
 Optimization completed.
    -- Stationary point found.
                           ----------------------------
                           !   Optimized Parameters   !
                           ! (Angstroms and Degrees)  !
 --------------------------                            --------------------------
 ! Name  Definition              Value          Derivative Info.                !
 --------------------------------------------------------------------------------
 ! R1    R(1,2)                  0.9763         -DE/DX =    0.0001              !
 ! R2    R(1,3)                  0.9766         -DE/DX =    0.0001              !
 ! R3    R(1,4)                  0.9767         -DE/DX =    0.0                 !
 ! A1    A(2,1,3)              109.2517         -DE/DX =    0.0                 !
 ! A2    A(2,1,4)              109.2332         -DE/DX =    0.0001              !
 ! A3    A(3,1,4)              109.4203         -DE/DX =   -0.0002              !
 ! D1    D(2,1,4,3)           -119.5562         -DE/DX =    0.0001              !
 --------------------------------------------------------------------------------
 GradGradGradGradGradGradGradGradGradGradGradGradGradGradGradGradGradGrad

 Leave Link  103 at Thu May  2 22:39:22 2024, MaxMem=  2097152000 cpu:               0.1 elap:               0.0
 (Enter /home/pcmt/gaussian/g16.C.01/g16/l9999.exe)

 ----------------------------------------------------------------------

 Electric dipole moment (input orientation):
 (Debye = 10**-18 statcoulomb cm , SI units = C m)
                  (au)            (Debye)         (10**-30 SI)
   Tot        0.151737D+01      0.385678D+01      0.128648D+02
   x          0.786569D+00      0.199926D+01      0.666881D+01
   y          0.129758D+01      0.329813D+01      0.110014D+02
   z         -0.296135D-02     -0.752700D-02     -0.251074D-01

 Dipole polarizability, Alpha (input orientation).
 (esu units = cm**3 , SI units = C**2 m**2 J**-1)
 Alpha(0;0):
               (au)            (10**-24 esu)      (10**-40 SI)
   iso        0.630442D+01      0.934219D+00      0.103946D+01
   aniso      0.181308D+01      0.268670D+00      0.298936D+00
   xx         0.610622D+01      0.904848D+00      0.100678D+01
   yx        -0.897790D+00     -0.133039D+00     -0.148026D+00
   yy         0.589349D+01      0.873326D+00      0.971706D+00
   zx         0.735166D-02      0.108940D-02      0.121212D-02
   zy         0.816692D-02      0.121021D-02      0.134654D-02
   zz         0.691356D+01      0.102448D+01      0.113989D+01

 First dipole hyperpolarizability, Beta (input orientation).
 ||, _|_  parallel and perpendicular components, (z) with respect to z axis,
 vector components x,y,z.  Values do not include the 1/n! factor of 1/2.
 (esu units = statvolt**-1 cm**4 , SI units = C**3 m**3 J**-2)
 Beta(0;0,0):
               (au)            (10**-30 esu)      (10**-50 SI)
   || (z)    -0.447482D-01     -0.386590D-03     -0.143479D-03
   _|_(z)    -0.149161D-01     -0.128863D-03     -0.478263D-04
   x          0.217834D+02      0.188192D+00      0.698454D-01
   y          0.244991D+02      0.211653D+00      0.785529D-01
   z         -0.223741D+00     -0.193295D-02     -0.717395D-03
   ||         0.655674D+01      0.566451D-01      0.210233D-01
   xxx        0.934235D+01      0.807106D-01      0.299549D-01
   xxy       -0.380020D+01     -0.328308D-01     -0.121848D-01
   yxy        0.172213D+01      0.148779D-01      0.552178D-02
   yyy        0.258811D+01      0.223592D-01      0.829840D-02
   xxz       -0.128630D+00     -0.111127D-02     -0.412436D-03
   yxz        0.967945D-01      0.836229D-03      0.310358D-03
   yyz        0.662907D-02      0.572700D-04      0.212552D-04
   zxz       -0.380335D+01     -0.328580D-01     -0.121949D-01
   zyz        0.937846D+01      0.810226D-01      0.300707D-01
   zzz        0.474210D-01      0.409681D-03      0.152049D-03

 ----------------------------------------------------------------------

 Dipole orientation:
     8         -0.14799839          0.08483504          0.59548666
     1          1.41556264         -0.84875019          0.89187281
     1         -1.55584047         -0.82549541          1.36700391
     1         -0.00944964          1.76027414          1.35722648

 Electric dipole moment (dipole orientation):
 (Debye = 10**-18 statcoulomb cm , SI units = C m)
                  (au)            (Debye)         (10**-30 SI)
   Tot        0.151737D+01      0.385678D+01      0.128648D+02
   x          0.000000D+00      0.000000D+00      0.000000D+00
   y          0.000000D+00      0.000000D+00      0.000000D+00
   z          0.151737D+01      0.385678D+01      0.128648D+02

 Dipole polarizability, Alpha (dipole orientation).
 (esu units = cm**3 , SI units = C**2 m**2 J**-1)
 Alpha(0;0):
               (au)            (10**-24 esu)      (10**-40 SI)
   iso        0.630442D+01      0.934219D+00      0.103946D+01
   aniso      0.181308D+01      0.268670D+00      0.298936D+00
   xx         0.686218D+01      0.101687D+01      0.113142D+01
   yx         0.297404D-01      0.440708D-02      0.490354D-02
   yy         0.689643D+01      0.102195D+01      0.113707D+01
   zx        -0.278320D+00     -0.412427D-01     -0.458887D-01
   zy         0.160102D+00      0.237247D-01      0.263973D-01
   zz         0.515466D+01      0.763841D+00      0.849888D+00

 First dipole hyperpolarizability, Beta (dipole orientation).
 ||, _|_  parallel and perpendicular components, (z) with respect to z axis,
 vector components x,y,z.  Values do not include the 1/n! factor of 1/2.
 (esu units = statvolt**-1 cm**4 , SI units = C**3 m**3 J**-2)
 Beta(0;0,0):
               (au)            (10**-30 esu)      (10**-50 SI)
   || (z)     0.644857D+01      0.557106D-01      0.206764D-01
   _|_(z)     0.214952D+01      0.185702D-01      0.689214D-02
   x          0.515304D+01      0.445183D-01      0.165225D-01
   y         -0.293561D+01     -0.253614D-01     -0.941264D-02
   z          0.322428D+02      0.278553D+00      0.103382D+00
   ||         0.655674D+01      0.566451D-01      0.210233D-01
   xxx        0.146519D+01      0.126581D-01      0.469794D-02
   xxy       -0.917822D+01     -0.792927D-01     -0.294287D-01
   yxy        0.104177D+01      0.900011D-02      0.334030D-02
   yyy        0.776438D+01      0.670782D-01      0.248954D-01
   xxz        0.341123D+01      0.294704D-01      0.109376D-01
   yxz        0.159977D+01      0.138208D-01      0.512944D-02
   yyz        0.507809D+01      0.438707D-01      0.162822D-01
   zxz       -0.789286D+00     -0.681882D-02     -0.253074D-02
   zyz        0.435301D+00      0.376066D-02      0.139573D-02
   zzz        0.225829D+01      0.195099D-01      0.724091D-02

 ----------------------------------------------------------------------

 Test job not archived.
 1\1\GINC-U-0-12\Freq\RPBE1PBE\Gen/Gen\H3O1\VALLET\02-May-2024\0\\#P Ge
 om=AllCheck Guess=TCheck SCRF=Check Test GenChk RPBE1PBE/Gen/Gen Freq\
 \h2o.pbe0.optg-freq.chk\\1,1\O,0.0861785387,0.3162578529,0.0015926735\
 H,0.9915411234,-0.04916254,-0.0051452732\H,-0.0326394962,0.8675261685,
 0.7989328636\H,-0.0450801659,0.8653785186,-0.795380264\\Version=ES64L-
 G16RevC.01\HF=-76.7990653\RMSD=1.901e-10\RMSF=1.388e-04\ZeroPoint=0.03
 53311\Thermal=0.038199\ETot=-76.7608663\HTot=-76.7599221\GTot=-76.7828
 537\Dipole=0.5111413,0.573681,-0.0048766\DipoleDeriv=-0.4735942,0.0607
 519,-0.0004855,0.0601862,-0.4594842,-0.0004349,-0.0006712,-0.0005515,-
 0.5265206,0.5581647,-0.0662195,-0.0012559,-0.0756823,0.5240233,0.00034
 12,-0.0009543,0.0001568,0.4005478,0.4567064,0.0031319,-0.0638988,0.008
 1175,0.4676815,0.0643093,-0.0585978,0.0701909,0.5639708,0.4587232,0.00
 23356,0.0656402,0.0073786,0.4677794,-0.0642156,0.0602233,-0.0697963,0.
 562002\Polar=6.1062153,-0.8977901,5.8934938,0.0073517,0.0081669,6.9135
 617\PolarDeriv=-3.9939768,0.6462266,-0.6819419,0.0266444,-0.0259999,-0
 .5693145,0.1151303,-0.2088828,-2.7352991,-0.0256184,-0.0015045,-3.2704
 049,0.0287567,-0.0258514,0.0009224,-0.0901503,-2.7318526,0.0172682,4.7
 656115,-1.6316432,1.1282904,-0.0207176,0.0090625,0.9453661,-1.1924579,
 1.2384596,-1.2304228,0.0076356,-0.0089166,-0.1449397,-0.020422,0.00856
 65,-0.0079103,0.9645739,-0.4559042,-0.0204969,-0.3670006,0.4899594,-0.
 2140608,0.8844459,-0.2046153,-0.1700465,0.5359411,-0.503316,1.9880888,
 -0.2187849,1.5494697,1.7125343,0.6391666,-0.2756819,1.2761914,-0.41710
 77,1.5992583,4.002256,-0.4046341,0.4954572,-0.2322877,-0.8903726,0.221
 5528,-0.2060051,0.5413865,-0.5262609,1.9776331,0.2367677,-1.5390487,1.
 7028103,-0.6475013,0.2929667,-1.2692034,-0.4573159,1.5884984,-3.999027
 3\HyperPolar=9.3423457,-3.8002008,1.7221323,2.5881063,-0.1286304,0.096
 7945,0.0066291,-3.8033465,9.3784585,0.047421\Quadrupole=-0.4922874,0.2
 023052,0.2899822,-0.5450468,0.0105169,0.0109266\PG=Unknown\NImag=0\\0.
 49856085,-0.25306909,0.44164897,0.00181324,0.00252923,0.73513314,-0.41
 099702,0.17748354,0.00238851,0.41616771,0.12964113,-0.07519626,-0.0009
 7838,-0.17297455,0.09403904,0.00242382,-0.00137985,-0.07490693,-0.0025
 3963,0.00127071,0.06561469,-0.04351702,0.03623211,0.01157599,-0.002259
 52,0.02175909,0.03454473,0.04522923,0.05998814,-0.18394612,-0.21087982
 ,-0.00233839,-0.00942140,-0.01075769,-0.05062946,0.17624281,0.03919359
 ,-0.18093443,-0.33028182,0.00206333,-0.00057918,0.00436071,-0.04347700
 ,0.20152951,0.35070656,-0.04404681,0.03935344,-0.01577774,-0.00291117,
 0.02157433,-0.03442892,0.00054731,-0.00702029,0.00222008,0.04641068,0.
 06343982,-0.18250659,0.20932897,-0.00217061,-0.00942138,0.01086683,-0.
 00736173,0.01712471,-0.02001590,-0.05390747,0.17480325,-0.04343065,0.1
 7978505,-0.32994439,-0.00191221,0.00028685,0.00493153,-0.00264372,0.02
 010801,-0.02478545,0.04798659,-0.20017990,0.34979831\\0.00005833,0.000
 29269,0.00019322,-0.00009143,0.00009179,-0.00006471,0.00000031,-0.0001
 8640,-0.00004899,0.00003279,-0.00019808,-0.00007951\\\@


 OPTIMIST - A PESSIMIST WHO LACKS EXPERIENCE
 Job cpu time:       0 days  0 hours  2 minutes 16.1 seconds.
 Elapsed time:       0 days  0 hours  0 minutes  9.5 seconds.
 File lengths (MBytes):  RWF=      6 Int=      0 D2E=      0 Chk=      2 Scr=      1
 Normal termination of Gaussian 16 at Thu May  2 22:39:23 2024.
