

 Parallel Execution: Process Information
 ==============================================================================
 Rank   Node Name                              NodeID   MyNodeRank  NodeMaster
    0   u-0-4.local                               0          0          0
    1   u-0-4.local                               0          1         -1
    2   u-0-4.local                               0          2         -1
    3   u-0-4.local                               0          3         -1
    4   u-0-4.local                               1          0          1
    5   u-0-4.local                               1          1         -1
    6   u-0-4.local                               1          2         -1
    7   u-0-4.local                               1          3         -1
    8   u-0-4.local                               2          0          2
    9   u-0-4.local                               2          1         -1
   10   u-0-4.local                               2          2         -1
   11   u-0-4.local                               2          3         -1
   12   u-0-4.local                               3          0          3
   13   u-0-4.local                               3          1         -1
   14   u-0-4.local                               3          2         -1
   15   u-0-4.local                               3          3         -1
 ==============================================================================


May use up to 31228MB of RAM as shared memory on node 0
May use up to 31250MB of RAM as shared memory on node 1
May use up to 31250MB of RAM as shared memory on node 2
May use up to 31250MB of RAM as shared memory on node 3

 *******************************************************************************
 *                                                                             *
 *  --------------------------------                                           *
 *   Amsterdam Modeling Suite (AMS)              2023.101                      *
 *  --------------------------------                                           *
 *                                               r111868 2023-03-31            *
 *                                                                             *
 *                                                                             *
 *                              =================                              *
 *                              |               |                              *
 *                              |     A M S     |                              *
 *                              |               |                              *
 *                              =================                              *
 *                                                                             *
 *                                                                             *
 *   Online information and documentation:  https://www.scm.com/support/       *
 *   E-mail:  support@scm.com   info@scm.com                                   *
 *                                                                             *
 *   Scientific publications using AMS results must be properly referenced     *
 *   See the User Manuals (or the web site) for recommended citations          *
 *   The terms and conditions of the End User License Agreement apply to       *
 *   the use of AMS, https://www.scm.com/license-terms/                        *
 *                                                                             *
 **********************  x86_64_linux_intel / intelmpi  ************************
 
 Licensed to: Dr. Val?rie Vallet / Laboratoire PhLAM UMR 8523 / Villeneuve d'Ascq Cedex / FRANCE 2023-12-11 15:27:25
 SCM User ID: u10325
  
 AMS 2023.101  RunTime: Feb15-2024 16:10:26  ShM Nodes: 4  Procs: 16

 AMS jobname: CeIII-O-CeIV.eclipsed.x2c-so.pbe0
 AMS jobid  : 1371737812

 Start   directory: /home/vallet/ANL/CeIV-dimer/CeIII-O-CeIV/eclipsed-structure-Ce-dinuclear2/geom-pbe0-cosmo/sp-pbe0-SO/
 Results directory: /home/vallet/ANL/CeIV-dimer/CeIII-O-CeIV/eclipsed-structure-Ce-dinuclear2/geom-pbe0-cosmo/sp-pbe0-SO/CeIII-O-CeIV.eclipsed.x2c-so.pbe0.results/
 Scratch directory: /state/partition2/vallet/1007693.phlam-s-sakura/amstmp_CeIII-O-CeIV.eclipsed.x2c-so.pbe0_kid0.1371737812/


 Communication costs MPI_COMM_WORLD:     -1.532 usec per message,   0.0459 usec per 8-byte item
 Communication costs for intra-node:      0.443 usec per message,   0.0087 usec per 8-byte item

 RNG seed: -1565251289 301925587 -1295134557 -1122389050 -1637702559 1594793951 -610712321 247527006



                     *************************************************************************
                     *  ADF 2023.101  RunTime: Feb15-2024 16:10:26  ShM Nodes: 4  Procs: 16  *
                     *************************************************************************
  

       ****************************
       * SINGLE POINT CALCULATION *
       ****************************
 
--------
Geometry
--------
Formula: H12Ce2N6O25
Atoms
  Index Symbol   x (angstrom)   y (angstrom)   z (angstrom)
      1     Ce     0.43464400    -0.01253800     2.15391600
      2     Ce    -0.48496500     0.10248000    -1.96766800
      3      H    -0.17605200     2.89326700     1.20149100
      4      H     0.02816000    -2.55641300    -0.66553600
      5      H     1.31753400     2.91876800     1.55166200
      6      H    -1.07222900    -2.89207200    -1.69427700
      7      H     1.89231900     0.66280700     4.72006300
      8      H    -1.64684100    -0.61799000    -4.61366600
      9      H     1.58974500     2.08554800     4.21511000
     10      H    -1.23083800    -2.04483400    -4.21638200
     11      H     0.36895300    -1.93539800     4.69661700
     12      H    -0.09344900     1.52612400    -4.85317900
     13      H     1.79186500    -2.10005900     4.14285400
     14      H    -1.44472100     2.08406700    -4.37801700
     15      N    -2.18436900     0.94002800     3.37118700
     16      N     2.13261800    -0.92409700    -3.08724900
     17      N    -0.75514000    -2.84480400     1.73945600
     18      N     0.42705600     2.96393600    -1.98750100
     19      N     3.38694800    -0.12294300     1.39711200
     20      N    -3.44232000    -0.09850500    -1.52010000
     21      O    -0.18632800     0.27884900    -0.12479800
     22      O    -2.03770500     0.86749800     2.12712000
     23      O     1.97618400    -0.69149000    -1.86540800
     24      O    -1.20596900     0.59094100     4.08068200
     25      O     1.15139000    -0.68026400    -3.83585200
     26      O    -3.22140500     1.32740800     3.87025900
     27      O     3.17395000    -1.36354600    -3.52766000
     28      O     0.46487600     2.58171300     1.85152100
     29      O    -0.23867100    -2.41690300    -1.59662600
     30      O    -1.24757100    -2.04673700     2.56237700
     31      O     1.19351300     2.00617800    -2.26630400
     32      O     0.29238500    -2.46941100     1.13477000
     33      O    -0.76833200     2.66991100    -1.74987400
     34      O    -1.24797400    -3.93142900     1.51971600
     35      O     0.82701100     4.10805000    -1.95074600
     36      O     1.92112800     1.22473000     3.93516700
     37      O    -1.72914500    -1.27844600    -3.91008800
     38      O     2.86954000    -1.01002600     2.11905600
     39      O    -2.88381800     0.86632200    -2.11066400
     40      O     2.63648400     0.80734600     1.01359800
     41      O    -2.68875800    -1.00800500    -1.10748100
     42      O     4.56046800    -0.16247800     1.08444200
     43      O    -4.64328500    -0.13357400    -1.36509300
     44      O     1.10291600    -1.44628800     4.30769500
     45      O    -0.90980600     1.28227900    -4.40170300
 
Total System Charge            -1.00000
Bonding info available!
 
 
----------------
ADF Engine Input
----------------
 
 Basis
 Type TZ2P
 Core None
 End
 XC
 Hybrid PBE0
 End
 Relativity
 Level Spin-Orbit
 Formalism X2C
 SpinOrbitMagnetization NonCollinear
 End
 Unrestricted Yes
 

 Title: *** (NO TITLE) ***

 *** adf ***



 ===========================
 A T T A C H E D   F I L E S
 ===========================
  



 ===============================
 M O D E L   P A R A M E T E R S
 ===============================
  
 DENSITY FUNCTIONAL POTENTIAL (scf)
    Hybrid:                            PBE0                                    == Not Default ==

 SPIN  (restricted / unrestr.)
    Molecule:                          UNrestricted                            == Not Default ==
    Fragments:                         Restricted                               

 OTHER ASPECTS
    Relativistic Corrections:          Spin-Orbit (X2C,MAPA)                   == Not Default ==
    Unrestricted Option:               Noncollinear approximation               *** SPECIAL ***

    Nuclear Charge Density Model:      Point Charge Nuclei                      
    Core Treatment:                    Frozen Orbital(s)                        

    Hyperfine or Zeeman Interaction:   ---                                      


 Fragment File(s)
 ----------------
 Ce:
         file : /home/vallet/ANL/CeIV-dimer/CeIII-O-CeIV/eclipsed-structure-Ce-dinuclear2/geom-pbe0-cosmo/sp-pbe0-SO/CeIII-O-CeIV.eclipsed.x2c-so.pbe0.results/t21.190B7557.Ce
         jobid: 0
         title: Cerium (TZP, all electron)
 H:
         file : /home/vallet/ANL/CeIV-dimer/CeIII-O-CeIV/eclipsed-structure-Ce-dinuclear2/geom-pbe0-cosmo/sp-pbe0-SO/CeIII-O-CeIV.eclipsed.x2c-so.pbe0.results/t21.62BC803D.H
         jobid: 0
         title: Hydrogen (TZ2P)
 N:
         file : /home/vallet/ANL/CeIV-dimer/CeIII-O-CeIV/eclipsed-structure-Ce-dinuclear2/geom-pbe0-cosmo/sp-pbe0-SO/CeIII-O-CeIV.eclipsed.x2c-so.pbe0.results/t21.131ABD2B.N
         jobid: 0
         title: Nitrogen (TZ2P)
 O:
         file : /home/vallet/ANL/CeIV-dimer/CeIII-O-CeIV/eclipsed-structure-Ce-dinuclear2/geom-pbe0-cosmo/sp-pbe0-SO/CeIII-O-CeIV.eclipsed.x2c-so.pbe0.results/t21.5810AA2E.O
         jobid: 0
         title: Oxygen (TZ2P)



 ===============
 G E O M E T R Y  ***  3D  Molecule  ***
 ===============
  

 ATOMS
 =====                            X Y Z                    CHARGE
                                (Angstrom)             Nucl     +Core       At.Mass
                       --------------------------    ----------------       -------
    1  Ce              0.4346   -0.0125    2.1539     58.00     58.00      139.9054
    2  Ce             -0.4850    0.1025   -1.9677     58.00     58.00      139.9054
    3  H              -0.1761    2.8933    1.2015      1.00      1.00        1.0078
    4  H               0.0282   -2.5564   -0.6655      1.00      1.00        1.0078
    5  H               1.3175    2.9188    1.5517      1.00      1.00        1.0078
    6  H              -1.0722   -2.8921   -1.6943      1.00      1.00        1.0078
    7  H               1.8923    0.6628    4.7201      1.00      1.00        1.0078
    8  H              -1.6468   -0.6180   -4.6137      1.00      1.00        1.0078
    9  H               1.5897    2.0855    4.2151      1.00      1.00        1.0078
   10  H              -1.2308   -2.0448   -4.2164      1.00      1.00        1.0078
   11  H               0.3690   -1.9354    4.6966      1.00      1.00        1.0078
   12  H              -0.0934    1.5261   -4.8532      1.00      1.00        1.0078
   13  H               1.7919   -2.1001    4.1429      1.00      1.00        1.0078
   14  H              -1.4447    2.0841   -4.3780      1.00      1.00        1.0078
   15  N              -2.1844    0.9400    3.3712      7.00      7.00       14.0031
   16  N               2.1326   -0.9241   -3.0872      7.00      7.00       14.0031
   17  N              -0.7551   -2.8448    1.7395      7.00      7.00       14.0031
   18  N               0.4271    2.9639   -1.9875      7.00      7.00       14.0031
   19  N               3.3869   -0.1229    1.3971      7.00      7.00       14.0031
   20  N              -3.4423   -0.0985   -1.5201      7.00      7.00       14.0031
   21  O              -0.1863    0.2788   -0.1248      8.00      8.00       15.9949
   22  O              -2.0377    0.8675    2.1271      8.00      8.00       15.9949
   23  O               1.9762   -0.6915   -1.8654      8.00      8.00       15.9949
   24  O              -1.2060    0.5909    4.0807      8.00      8.00       15.9949
   25  O               1.1514   -0.6803   -3.8359      8.00      8.00       15.9949
   26  O              -3.2214    1.3274    3.8703      8.00      8.00       15.9949
   27  O               3.1739   -1.3635   -3.5277      8.00      8.00       15.9949
   28  O               0.4649    2.5817    1.8515      8.00      8.00       15.9949
   29  O              -0.2387   -2.4169   -1.5966      8.00      8.00       15.9949
   30  O              -1.2476   -2.0467    2.5624      8.00      8.00       15.9949
   31  O               1.1935    2.0062   -2.2663      8.00      8.00       15.9949
   32  O               0.2924   -2.4694    1.1348      8.00      8.00       15.9949
   33  O              -0.7683    2.6699   -1.7499      8.00      8.00       15.9949
   34  O              -1.2480   -3.9314    1.5197      8.00      8.00       15.9949
   35  O               0.8270    4.1081   -1.9507      8.00      8.00       15.9949
   36  O               1.9211    1.2247    3.9352      8.00      8.00       15.9949
   37  O              -1.7291   -1.2784   -3.9101      8.00      8.00       15.9949
   38  O               2.8695   -1.0100    2.1191      8.00      8.00       15.9949
   39  O              -2.8838    0.8663   -2.1107      8.00      8.00       15.9949
   40  O               2.6365    0.8073    1.0136      8.00      8.00       15.9949
   41  O              -2.6888   -1.0080   -1.1075      8.00      8.00       15.9949
   42  O               4.5605   -0.1625    1.0844      8.00      8.00       15.9949
   43  O              -4.6433   -0.1336   -1.3651      8.00      8.00       15.9949
   44  O               1.1029   -1.4463    4.3077      8.00      8.00       15.9949
   45  O              -0.9098    1.2823   -4.4017      8.00      8.00       15.9949


 FRAGMENTS
 =========                                     Atoms in this Fragment     Cart. coord.s (Angstrom)
                                               -------------------------------------------------------
    1  Ce                                                1  Ce           0.4346   -0.0125    2.1539
    2  Ce                                                2  Ce          -0.4850    0.1025   -1.9677
    3  H                                                 3  H           -0.1761    2.8933    1.2015
    4  H                                                 4  H            0.0282   -2.5564   -0.6655
    5  H                                                 5  H            1.3175    2.9188    1.5517
    6  H                                                 6  H           -1.0722   -2.8921   -1.6943
    7  H                                                 7  H            1.8923    0.6628    4.7201
    8  H                                                 8  H           -1.6468   -0.6180   -4.6137
    9  H                                                 9  H            1.5897    2.0855    4.2151
   10  H                                                10  H           -1.2308   -2.0448   -4.2164
   11  H                                                11  H            0.3690   -1.9354    4.6966
   12  H                                                12  H           -0.0934    1.5261   -4.8532
   13  H                                                13  H            1.7919   -2.1001    4.1429
   14  H                                                14  H           -1.4447    2.0841   -4.3780
   15  N                                                15  N           -2.1844    0.9400    3.3712
   16  N                                                16  N            2.1326   -0.9241   -3.0872
   17  N                                                17  N           -0.7551   -2.8448    1.7395
   18  N                                                18  N            0.4271    2.9639   -1.9875
   19  N                                                19  N            3.3869   -0.1229    1.3971
   20  N                                                20  N           -3.4423   -0.0985   -1.5201
   21  O                                                21  O           -0.1863    0.2788   -0.1248
   22  O                                                22  O           -2.0377    0.8675    2.1271
   23  O                                                23  O            1.9762   -0.6915   -1.8654
   24  O                                                24  O           -1.2060    0.5909    4.0807
   25  O                                                25  O            1.1514   -0.6803   -3.8359
   26  O                                                26  O           -3.2214    1.3274    3.8703
   27  O                                                27  O            3.1739   -1.3635   -3.5277
   28  O                                                28  O            0.4649    2.5817    1.8515
   29  O                                                29  O           -0.2387   -2.4169   -1.5966
   30  O                                                30  O           -1.2476   -2.0467    2.5624
   31  O                                                31  O            1.1935    2.0062   -2.2663
   32  O                                                32  O            0.2924   -2.4694    1.1348
   33  O                                                33  O           -0.7683    2.6699   -1.7499
   34  O                                                34  O           -1.2480   -3.9314    1.5197
   35  O                                                35  O            0.8270    4.1081   -1.9507
   36  O                                                36  O            1.9211    1.2247    3.9352
   37  O                                                37  O           -1.7291   -1.2784   -3.9101
   38  O                                                38  O            2.8695   -1.0100    2.1191
   39  O                                                39  O           -2.8838    0.8663   -2.1107
   40  O                                                40  O            2.6365    0.8073    1.0136
   41  O                                                41  O           -2.6888   -1.0080   -1.1075
   42  O                                                42  O            4.5605   -0.1625    1.0844
   43  O                                                43  O           -4.6433   -0.1336   -1.3651
   44  O                                                44  O            1.1029   -1.4463    4.3077
   45  O                                                45  O           -0.9098    1.2823   -4.4017



 =====================================
 S Y M M E T R Y ,   E L E C T R O N S
 =====================================
  
 Symmetry: NOSYM

 Double Group Irreducible Representations (spinor symmetry)
 -----------------------------------------------------------
 A1/2

 Symmetry is NOT used when fitting density


 Configuration of Valence Electrons
 ==================================
 ( determined in the SCF procedure )

 Total:   371

 Net Charge: -1 (Nuclei minus Electrons)

 Aufbau principle for MO occupations will be applied through SCF cycle no.     150
 Thereafter, the program will assign electrons to MOs that are spatially
 similar to the occupied MOs in a "reference" cycle ("KeepOrbitals").
 The reference cycle is always the PREVIOUS cycle: it will evolve with
 the SCF procedure.
1
 ***************************************************************************************************



                                      ****************************************
                                      *  B U I L D : (Fragments, Functions)  *
                                      ****************************************
  

 Total nr. of (C)SFOs (summation over all irreps) :  1138

 Specify PRINT SFO in the input file to get a full list

 Nr. of SFOs for ir.rep.           A :  1138



 ================================
 (Slater-type)  F U N C T I O N S  ***  (Basis and Fit)  ***
 ================================
  

 Atom Type    1  (Ce)
 ==============

 Valence Basis Sets:  34
 -----------------------
   1 S  452.000000
   1 S  112.400000
   1 S   59.900000
   2 S   67.200000
   2 S   25.900000
   3 S   13.850000
   3 S   11.000000
   4 S   10.500000
   4 S    6.600000
   5 S    4.300000
   5 S    2.800000
   6 S    1.950000
   6 S    1.250000
   6 S    0.820000
   2 P  112.400000
   2 P   40.100000
   2 P   24.950000
   3 P   14.600000
   3 P   11.200000
   4 P    8.300000
   4 P    5.650000
   5 P    3.650000
   5 P    2.250000
   3 D   18.900000
   3 D   11.500000
   4 D    7.550000
   4 D    4.650000
   5 D    2.900000
   5 D    1.600000
   5 D    0.900000
   4 F    8.150000
   4 F    3.800000
   4 F    1.650000
   6 P    1.250000

 Charge Fitting Sets (for the computation of the Coulomb Potential):  73
 -----------------------------------------------------------------------
   1 S  904.000000
   1 S  677.300000
   1 S  507.450000
   1 S  380.195000
   1 S  284.852000
   1 S  213.418000
   1 S  159.898000
   1 S  119.800000
   1 S   71.430000
   2 S   78.880000
   2 S   52.890000
   3 S   52.070000
   3 S   37.160000
   4 S   35.060000
   4 S   26.040000
   5 S   24.090000
   5 S   18.410000
   6 S   16.860000
   6 S   13.160000
   7 S   11.990000
   7 S    9.520000
   8 S    8.650000
   8 S    6.960000
   9 S    6.310000
   9 S    5.150000
  10 S    4.660000
  10 S    3.840000
  10 S    3.160000
  11 S    2.860000
  11 S    2.380000
  11 S    1.970000
  11 S    1.640000
   2 P   84.850000
   3 P   69.680000
   4 P   56.300000
   5 P   45.370000
   5 P   30.410000
   6 P   24.560000
   6 P   17.000000
   7 P   13.780000
   7 P    9.790000
   8 P    7.970000
   8 P    5.780000
   9 P    4.730000
   9 P    3.490000
  10 P    2.870000
  10 P    2.150000
   3 D   71.400000
   4 D   50.910000
   5 D   36.700000
   6 D   26.770000
   7 D   19.760000
   7 D   12.810000
   8 D    9.560000
   8 D    6.360000
   9 D    4.790000
   9 D    3.260000
  10 D    2.480000
  10 D    1.720000
   4 F   63.700000
   5 F   39.060000
   6 F   24.580000
   7 F   15.830000
   8 F   10.400000
   8 F    6.110000
   9 F    4.080000
   9 F    2.470000
   5 G   28.750000
   6 G   16.000000
   7 G    9.190000
   8 G    5.430000
   9 G    3.280000
   9 G    1.800000

 Atom Type    2  (H)
 ==============

 Valence Basis Sets:   5
 -----------------------
   1 S    0.690000
   1 S    0.920000
   1 S    1.580000
   2 P    1.250000
   3 D    2.500000

 Charge Fitting Sets (for the computation of the Coulomb Potential):  11
 -----------------------------------------------------------------------
   1 S    3.160000
   1 S    2.090000
   1 S    1.380000
   2 S    1.500000
   2 P    4.000000
   2 P    2.650000
   2 P    1.750000
   3 D    4.000000
   3 D    2.500000
   4 F    3.000000
   5 G    4.000000

 Atom Type    3  (N)
 ==============

 Valence Basis Sets:  10
 -----------------------
   1 S    8.740000
   1 S    5.900000
   2 S    5.150000
   2 S    2.500000
   2 S    1.500000
   2 P    3.680000
   2 P    1.880000
   2 P    1.000000
   3 D    2.200000
   4 F    3.300000

 Charge Fitting Sets (for the computation of the Coulomb Potential):  22
 -----------------------------------------------------------------------
   1 S   17.480000
   2 S   20.150000
   2 S   13.990000
   2 S    9.710000
   2 S    6.740000
   3 S    6.860000
   3 S    5.040000
   3 S    3.700000
   3 S    2.720000
   3 S    2.000000
   2 P   11.320000
   2 P    6.730000
   3 P    5.920000
   3 P    3.820000
   3 P    2.460000
   3 D    8.100000
   3 D    5.080000
   3 D    3.190000
   3 D    2.000000
   4 F    5.800000
   4 F    3.600000
   5 G    4.500000

 Atom Type    4  (O)
 ==============

 Valence Basis Sets:  10
 -----------------------
   1 S    9.800000
   1 S    6.800000
   2 S    7.580000
   2 S    2.880000
   2 S    1.720000
   2 P    4.080000
   2 P    2.080000
   2 P    1.120000
   3 D    2.000000
   4 F    3.000000

 Charge Fitting Sets (for the computation of the Coulomb Potential):  22
 -----------------------------------------------------------------------
   1 S   19.600000
   2 S   22.600000
   2 S   15.680000
   2 S   10.890000
   2 S    7.560000
   3 S    7.690000
   3 S    5.650000
   3 S    4.150000
   3 S    3.050000
   3 S    2.240000
   2 P   12.860000
   2 P    7.680000
   3 P    6.780000
   3 P    4.390000
   3 P    2.840000
   3 D    8.800000
   3 D    5.580000
   3 D    3.530000
   3 D    2.240000
   4 F    6.200000
   4 F    3.700000
   5 G    4.500000


 BAS: List of all Elementary Cartesian Basis Functions
 =====================================================

 The numbering in the list below (to the right of the function characteristics) is referred
 to in print-outs of MO eigenvectors and Mulliken populations in the BAS representation
 (as contrasted to the SFO representation).

 Notes:
 1. The functions are characterized by a polynomial prefactor (powers of x,y,z and r) and
    an exponential decay factor alpha.
 2. Since the basis sets are specific for an atom TYPE, the individual functions occur on
    all atoms of that type.
 3. The word 'Core' in the left margin signals that it is a Core Function (CF) : not a
    degree of freedom in the valence set, but only used to ensure orthogonalization of
    the other valence basis functions on the frozen Core Orbitals.


 (power of) X  Y  Z  R     Alpha  on Atom
            ==========     =====     ==========

 Ce                                   1    2
                                  ---------------------------------------------------------------------------
            0  0  0  0   452.000      1  117
            0  0  0  0   112.400      2  118
            0  0  0  0    59.900      3  119
            0  0  0  1    67.200      4  120
            0  0  0  1    25.900      5  121
            0  0  0  2    13.850      6  122
            0  0  0  2    11.000      7  123
            0  0  0  3    10.500      8  124
            0  0  0  3     6.600      9  125
            0  0  0  4     4.300     10  126
            0  0  0  4     2.800     11  127
            0  0  0  5     1.950     12  128
            0  0  0  5     1.250     13  129
            0  0  0  5     0.820     14  130
            1  0  0  0   112.400     15  131
            0  1  0  0   112.400     16  132
            0  0  1  0   112.400     17  133
            1  0  0  0    40.100     18  134
            0  1  0  0    40.100     19  135
            0  0  1  0    40.100     20  136
            1  0  0  0    24.950     21  137
            0  1  0  0    24.950     22  138
            0  0  1  0    24.950     23  139
            1  0  0  1    14.600     24  140
            0  1  0  1    14.600     25  141
            0  0  1  1    14.600     26  142
            1  0  0  1    11.200     27  143
            0  1  0  1    11.200     28  144
            0  0  1  1    11.200     29  145
            1  0  0  2     8.300     30  146
            0  1  0  2     8.300     31  147
            0  0  1  2     8.300     32  148
            1  0  0  2     5.650     33  149
            0  1  0  2     5.650     34  150
            0  0  1  2     5.650     35  151
            1  0  0  3     3.650     36  152
            0  1  0  3     3.650     37  153
            0  0  1  3     3.650     38  154
            1  0  0  3     2.250     39  155
            0  1  0  3     2.250     40  156
            0  0  1  3     2.250     41  157
            2  0  0  0    18.900     42  158
            1  1  0  0    18.900     43  159
            1  0  1  0    18.900     44  160
            0  2  0  0    18.900     45  161
            0  1  1  0    18.900     46  162
            0  0  2  0    18.900     47  163
            2  0  0  0    11.500     48  164
            1  1  0  0    11.500     49  165
            1  0  1  0    11.500     50  166
            0  2  0  0    11.500     51  167
            0  1  1  0    11.500     52  168
            0  0  2  0    11.500     53  169
            2  0  0  1     7.550     54  170
            1  1  0  1     7.550     55  171
            1  0  1  1     7.550     56  172
            0  2  0  1     7.550     57  173
            0  1  1  1     7.550     58  174
            0  0  2  1     7.550     59  175
            2  0  0  1     4.650     60  176
            1  1  0  1     4.650     61  177
            1  0  1  1     4.650     62  178
            0  2  0  1     4.650     63  179
            0  1  1  1     4.650     64  180
            0  0  2  1     4.650     65  181
            2  0  0  2     2.900     66  182
            1  1  0  2     2.900     67  183
            1  0  1  2     2.900     68  184
            0  2  0  2     2.900     69  185
            0  1  1  2     2.900     70  186
            0  0  2  2     2.900     71  187
            2  0  0  2     1.600     72  188
            1  1  0  2     1.600     73  189
            1  0  1  2     1.600     74  190
            0  2  0  2     1.600     75  191
            0  1  1  2     1.600     76  192
            0  0  2  2     1.600     77  193
            2  0  0  2     0.900     78  194
            1  1  0  2     0.900     79  195
            1  0  1  2     0.900     80  196
            0  2  0  2     0.900     81  197
            0  1  1  2     0.900     82  198
            0  0  2  2     0.900     83  199
            3  0  0  0     8.150     84  200
            2  1  0  0     8.150     85  201
            2  0  1  0     8.150     86  202
            1  2  0  0     8.150     87  203
            1  1  1  0     8.150     88  204
            1  0  2  0     8.150     89  205
            0  3  0  0     8.150     90  206
            0  2  1  0     8.150     91  207
            0  1  2  0     8.150     92  208
            0  0  3  0     8.150     93  209
            3  0  0  0     3.800     94  210
            2  1  0  0     3.800     95  211
            2  0  1  0     3.800     96  212
            1  2  0  0     3.800     97  213
            1  1  1  0     3.800     98  214
            1  0  2  0     3.800     99  215
            0  3  0  0     3.800    100  216
            0  2  1  0     3.800    101  217
            0  1  2  0     3.800    102  218
            0  0  3  0     3.800    103  219
            3  0  0  0     1.650    104  220
            2  1  0  0     1.650    105  221
            2  0  1  0     1.650    106  222
            1  2  0  0     1.650    107  223
            1  1  1  0     1.650    108  224
            1  0  2  0     1.650    109  225
            0  3  0  0     1.650    110  226
            0  2  1  0     1.650    111  227
            0  1  2  0     1.650    112  228
            0  0  3  0     1.650    113  229
            1  0  0  4     1.250    114  230
            0  1  0  4     1.250    115  231
            0  0  1  4     1.250    116  232

 H                                    3    4    5    6    7    8    9   10   11   12   13   14
                                  ---------------------------------------------------------------------------
            0  0  0  0     0.690    233  245  257  269  281  293  305  317  329  341  353  365
            0  0  0  0     0.920    234  246  258  270  282  294  306  318  330  342  354  366
            0  0  0  0     1.580    235  247  259  271  283  295  307  319  331  343  355  367
            1  0  0  0     1.250    236  248  260  272  284  296  308  320  332  344  356  368
            0  1  0  0     1.250    237  249  261  273  285  297  309  321  333  345  357  369
            0  0  1  0     1.250    238  250  262  274  286  298  310  322  334  346  358  370
            2  0  0  0     2.500    239  251  263  275  287  299  311  323  335  347  359  371
            1  1  0  0     2.500    240  252  264  276  288  300  312  324  336  348  360  372
            1  0  1  0     2.500    241  253  265  277  289  301  313  325  337  349  361  373
            0  2  0  0     2.500    242  254  266  278  290  302  314  326  338  350  362  374
            0  1  1  0     2.500    243  255  267  279  291  303  315  327  339  351  363  375
            0  0  2  0     2.500    244  256  268  280  292  304  316  328  340  352  364  376

 N                                   15   16   17   18   19   20
                                  ---------------------------------------------------------------------------
            0  0  0  0     8.740    377  407  437  467  497  527
            0  0  0  0     5.900    378  408  438  468  498  528
            0  0  0  1     5.150    379  409  439  469  499  529
            0  0  0  1     2.500    380  410  440  470  500  530
            0  0  0  1     1.500    381  411  441  471  501  531
            1  0  0  0     3.680    382  412  442  472  502  532
            0  1  0  0     3.680    383  413  443  473  503  533
            0  0  1  0     3.680    384  414  444  474  504  534
            1  0  0  0     1.880    385  415  445  475  505  535
            0  1  0  0     1.880    386  416  446  476  506  536
            0  0  1  0     1.880    387  417  447  477  507  537
            1  0  0  0     1.000    388  418  448  478  508  538
            0  1  0  0     1.000    389  419  449  479  509  539
            0  0  1  0     1.000    390  420  450  480  510  540
            2  0  0  0     2.200    391  421  451  481  511  541
            1  1  0  0     2.200    392  422  452  482  512  542
            1  0  1  0     2.200    393  423  453  483  513  543
            0  2  0  0     2.200    394  424  454  484  514  544
            0  1  1  0     2.200    395  425  455  485  515  545
            0  0  2  0     2.200    396  426  456  486  516  546
            3  0  0  0     3.300    397  427  457  487  517  547
            2  1  0  0     3.300    398  428  458  488  518  548
            2  0  1  0     3.300    399  429  459  489  519  549
            1  2  0  0     3.300    400  430  460  490  520  550
            1  1  1  0     3.300    401  431  461  491  521  551
            1  0  2  0     3.300    402  432  462  492  522  552
            0  3  0  0     3.300    403  433  463  493  523  553
            0  2  1  0     3.300    404  434  464  494  524  554
            0  1  2  0     3.300    405  435  465  495  525  555
            0  0  3  0     3.300    406  436  466  496  526  556

 O                                   21   22   23   24   25   26   27   28   29   30   31   32   33   34   35
                                     36   37   38   39   40   41   42   43   44   45
                                  ---------------------------------------------------------------------------
            0  0  0  0     9.800    557  587  617  647  677  707  737  767  797  827  857  887  917  947  977
                                   1007 1037 1067 1097 1127 1157 1187 1217 1247 1277
            0  0  0  0     6.800    558  588  618  648  678  708  738  768  798  828  858  888  918  948  978
                                   1008 1038 1068 1098 1128 1158 1188 1218 1248 1278
            0  0  0  1     7.580    559  589  619  649  679  709  739  769  799  829  859  889  919  949  979
                                   1009 1039 1069 1099 1129 1159 1189 1219 1249 1279
            0  0  0  1     2.880    560  590  620  650  680  710  740  770  800  830  860  890  920  950  980
                                   1010 1040 1070 1100 1130 1160 1190 1220 1250 1280
            0  0  0  1     1.720    561  591  621  651  681  711  741  771  801  831  861  891  921  951  981
                                   1011 1041 1071 1101 1131 1161 1191 1221 1251 1281
            1  0  0  0     4.080    562  592  622  652  682  712  742  772  802  832  862  892  922  952  982
                                   1012 1042 1072 1102 1132 1162 1192 1222 1252 1282
            0  1  0  0     4.080    563  593  623  653  683  713  743  773  803  833  863  893  923  953  983
                                   1013 1043 1073 1103 1133 1163 1193 1223 1253 1283
            0  0  1  0     4.080    564  594  624  654  684  714  744  774  804  834  864  894  924  954  984
                                   1014 1044 1074 1104 1134 1164 1194 1224 1254 1284
            1  0  0  0     2.080    565  595  625  655  685  715  745  775  805  835  865  895  925  955  985
                                   1015 1045 1075 1105 1135 1165 1195 1225 1255 1285
            0  1  0  0     2.080    566  596  626  656  686  716  746  776  806  836  866  896  926  956  986
                                   1016 1046 1076 1106 1136 1166 1196 1226 1256 1286
            0  0  1  0     2.080    567  597  627  657  687  717  747  777  807  837  867  897  927  957  987
                                   1017 1047 1077 1107 1137 1167 1197 1227 1257 1287
            1  0  0  0     1.120    568  598  628  658  688  718  748  778  808  838  868  898  928  958  988
                                   1018 1048 1078 1108 1138 1168 1198 1228 1258 1288
            0  1  0  0     1.120    569  599  629  659  689  719  749  779  809  839  869  899  929  959  989
                                   1019 1049 1079 1109 1139 1169 1199 1229 1259 1289
            0  0  1  0     1.120    570  600  630  660  690  720  750  780  810  840  870  900  930  960  990
                                   1020 1050 1080 1110 1140 1170 1200 1230 1260 1290
            2  0  0  0     2.000    571  601  631  661  691  721  751  781  811  841  871  901  931  961  991
                                   1021 1051 1081 1111 1141 1171 1201 1231 1261 1291
            1  1  0  0     2.000    572  602  632  662  692  722  752  782  812  842  872  902  932  962  992
                                   1022 1052 1082 1112 1142 1172 1202 1232 1262 1292
            1  0  1  0     2.000    573  603  633  663  693  723  753  783  813  843  873  903  933  963  993
                                   1023 1053 1083 1113 1143 1173 1203 1233 1263 1293
            0  2  0  0     2.000    574  604  634  664  694  724  754  784  814  844  874  904  934  964  994
                                   1024 1054 1084 1114 1144 1174 1204 1234 1264 1294
            0  1  1  0     2.000    575  605  635  665  695  725  755  785  815  845  875  905  935  965  995
                                   1025 1055 1085 1115 1145 1175 1205 1235 1265 1295
            0  0  2  0     2.000    576  606  636  666  696  726  756  786  816  846  876  906  936  966  996
                                   1026 1056 1086 1116 1146 1176 1206 1236 1266 1296
            3  0  0  0     3.000    577  607  637  667  697  727  757  787  817  847  877  907  937  967  997
                                   1027 1057 1087 1117 1147 1177 1207 1237 1267 1297
            2  1  0  0     3.000    578  608  638  668  698  728  758  788  818  848  878  908  938  968  998
                                   1028 1058 1088 1118 1148 1178 1208 1238 1268 1298
            2  0  1  0     3.000    579  609  639  669  699  729  759  789  819  849  879  909  939  969  999
                                   1029 1059 1089 1119 1149 1179 1209 1239 1269 1299
            1  2  0  0     3.000    580  610  640  670  700  730  760  790  820  850  880  910  940  970 1000
                                   1030 1060 1090 1120 1150 1180 1210 1240 1270 1300
            1  1  1  0     3.000    581  611  641  671  701  731  761  791  821  851  881  911  941  971 1001
                                   1031 1061 1091 1121 1151 1181 1211 1241 1271 1301
            1  0  2  0     3.000    582  612  642  672  702  732  762  792  822  852  882  912  942  972 1002
                                   1032 1062 1092 1122 1152 1182 1212 1242 1272 1302
            0  3  0  0     3.000    583  613  643  673  703  733  763  793  823  853  883  913  943  973 1003
                                   1033 1063 1093 1123 1153 1183 1213 1243 1273 1303
            0  2  1  0     3.000    584  614  644  674  704  734  764  794  824  854  884  914  944  974 1004
                                   1034 1064 1094 1124 1154 1184 1214 1244 1274 1304
            0  1  2  0     3.000    585  615  645  675  705  735  765  795  825  855  885  915  945  975 1005
                                   1035 1065 1095 1125 1155 1185 1215 1245 1275 1305
            0  0  3  0     3.000    586  616  646  676  706  736  766  796  826  856  886  916  946  976 1006
                                   1036 1066 1096 1126 1156 1186 1216 1246 1276 1306

 Total number of charge fitting functions (nprimf)      3842
 Total number of Cartesian basis functions (naos)       1306
 Total number of Cartesian core functions  (ncos)          0

1
 ***************************************************************************************************



                                              ***********************
                                              *  T E C H N I C A L  *
                                              ***********************
  



 =============================================================
 P A R A L L E L I Z A T I O N  and  V E C T O R I Z A T I O N
 =============================================================
  
 Nr of parallel processes:                               16
 Maximum vector length in NumInt loops:                 128



 =====================
 S C F   U P D A T E S
 =====================
  
 Max. nr. of cycles:                               300
 Convergence criterion:                              0.0000010000
   secondary criterion:                              0.0010000000

 Mix parameter (when DIIS does not apply):           0.2000000000
 Mixed ADIIS+SDIIS will be used                  
    Max number of expansion vectors:                10
    Pure ADIIS when Max([F,P]) is above              0.1000000000
    Pure SDIIS when Max([F,P]) is below              0.0010000000
 Automatic ElectronSmearing (in case of problematic SCF convergence) disabled



 =================
 P R E C I S I O N  ***  (General: NumInt, NeglectFunctionTails, ...)  ***
 =================
  

 NumInt:           Target precision:                 4.0000000000
 -------           Initial precision:                4.0000000000
                   Min. precision (optimization):    4.0000000000

 Neglect Functions:          Basis functions:        0.1000000000E-05
 ------------------          Fit functions:          0.1000000000E-05



 ===========================
 L I N E A R   S C A L I N G
 ===========================
  

 Cut-off radii density fit:                        0.1000000000E-07
 Overlap cut-off criterion AO matrix elements:     0.1000000000E-05
 Cut-offs for Coulomb potential and fitted density:0.1000000000E-07
 Cut-off criterion for Coulomb multipole terms:    0.1000000000E-07
 Progressive Convergence parameter:                 0.000000000    
1
 ***************************************************************************************************



                                            ***************************
                                            *  C O M P U T A T I O N  *
                                            ***************************
  



 ==============================
 Double group spinor symmetries  ***  (Spin-Orbit)  ***
 ==============================
  

 The double group Lowdins are spinors adapted to the irreducible representations
 of the double group. These double group Lowdins are linear combinations of
 products of the single group Lowdins and the spinfunctions. The single group
 Lowdins are  orthonormalized symmetrized fragment orbitals (SFOs).
 The complex coefficients that are used in the linear combinations are also
 known as Clebsch-Gordan coefficients.
 The spin functions (alpha,beta) span irrep e1/2


          A * e 1/2 :      A1/2

  A1/2:1 = A.alpha
  A1/2:1 = A.beta

 The table summarizes which one-electron orbital irreps (single group) couple
 with spin to which spinor irreps (double group).
 The Clebsch-Gordan series for each direct product: orbital irrep times e1/2.
                  A
            -------
  A1/2           X


 dimension (equal to the max. nr. of electrons per spinor) of the double group irreps
 ------------------------------------------------------------------------------------
  A1/2           1

 Number of elements of the density matrix on this node (used, total):     48156    853471



 ===========================================
 Numerical Integration : Fuzzy Cells (Becke)
 ===========================================
  
 Becke grid quality: NORMAL         
  
 Lebedev angular grid order:             min:  11 max:  31
 Nr. of radial points:                   min:  46 max: 144

 Total nr. of points:     326595
 Nr. of blocks:             2552
 Block length:               128
 Nr. of dummy points:         61


 Test of Precision of the Numerical Integration Grid
 ===================================================

 Integral of the Total Core Density:                   0.00000000000000



 ========================
 Density Fitting (zlmFit)
 ========================
  
 ZlmFit Fit Quality: NORMAL         
  
 Max L-expansion:                        min:   6 max:   8
 Nr. of radial interpolation points:     min:  39 max: 132



 ======================
 RI Hartree-Fock Scheme
 ======================
  
 Fit Set Quality     : NORMAL
 Threshold Quality   : NORMAL
 Integration Quality : NORMAL
 Fit Generation Method : AUTO
 Response Quality    : DEFAULT
 Is Range Separated  :  F
 
 RIHartreeFock Dependency: number of modified vectors:          18



 =====
 S C F  ***  ScaSCF  ***
 =====
  
 Initial density matrix is calculated as sum of fragments

 CYCLE    1
 SCF Error: norm([F,P])=    251.461740424346, max([F,P])=     42.458618726991
 orbitals (Q,E):
 ---------------
 A1/2 :362...381     ( 1.00    -0.3449)  ( 1.00    -0.3442)  ( 1.00    -0.3428)  ( 1.00    -0.3116)
                     ( 1.00    -0.3090)  ( 1.00    -0.3074)  ( 1.00    -0.3065)  ( 1.00    -0.3043)
                     ( 1.00    -0.3030)  ( 1.00    -0.2600)  ( 0.00    -0.2582)  ( 0.00    -0.2574)
                     ( 0.00    -0.2567)  ( 0.00    -0.2555)  ( 0.00    -0.2553)  ( 0.00    -0.2235)
                     ( 0.00    -0.2225)  ( 0.00    -0.2206)  ( 0.00    -0.2196)  ( 0.00    -0.2183)

 CYCLE    2
   MIX coefficients:  0.8000  0.2000
 SCF Error: norm([F,P])=      2.483741766054, max([F,P])=      0.152027356918
 orbitals (Q,E):
 ---------------
 A1/2 :362...381     ( 1.00    -0.2973)  ( 1.00    -0.2962)  ( 1.00    -0.2818)  ( 1.00    -0.2805)
                     ( 1.00    -0.2798)  ( 1.00    -0.2774)  ( 1.00    -0.2760)  ( 1.00    -0.2742)
                     ( 1.00    -0.2731)  ( 1.00    -0.2728)  ( 0.00    -0.2711)  ( 0.00    -0.2691)
                     ( 0.00    -0.2657)  ( 0.00    -0.2596)  ( 0.00    -0.2575)  ( 0.00    -0.2447)
                     ( 0.00    -0.2442)  ( 0.00    -0.2433)  ( 0.00    -0.2388)  ( 0.00    -0.2367)

 CYCLE    3
  SDIIS (wt  0.000):  0.7971  0.2029
 A-DIIS (wt  1.000):  0.8141  0.1859
  DIIS coefficients:  0.8141  0.1859
 SCF Error: norm([F,P])=      5.222582276527, max([F,P])=      0.837388481196
 orbitals (Q,E):
 ---------------
 A1/2 :362...381     ( 1.00    -0.1234)  ( 1.00    -0.1167)  ( 1.00    -0.1149)  ( 1.00    -0.1121)
                     ( 1.00    -0.1091)  ( 1.00    -0.1068)  ( 1.00    -0.1041)  ( 1.00    -0.1040)
                     ( 1.00    -0.0997)  ( 1.00    -0.0880)  ( 0.00    -0.0867)  ( 0.00    -0.0841)
                     ( 0.00    -0.0709)  ( 0.00    -0.0700)  ( 0.00    -0.0482)  ( 0.00    -0.0394)
                     ( 0.00    -0.0285)  ( 0.00    -0.0282)  ( 0.00    -0.0243)  ( 0.00    -0.0223)

 CYCLE    4
  SDIIS (wt  0.000):  0.7605  0.1884  0.0511
 A-DIIS (wt  1.000):  0.7724  0.1824  0.0452
  DIIS coefficients:  0.7724  0.1824  0.0452
 SCF Error: norm([F,P])=     18.124828691470, max([F,P])=      2.389624305037
 orbitals (Q,E):
 ---------------
 A1/2 :362...381     ( 1.00    -0.0957)  ( 1.00    -0.0860)  ( 1.00    -0.0843)  ( 1.00     0.0004)
                     ( 1.00     0.0034)  ( 1.00     0.0061)  ( 1.00     0.0072)  ( 1.00     0.0096)
                     ( 1.00     0.0119)  ( 1.00     0.0245)  ( 0.00     0.0319)  ( 0.00     0.0329)
                     ( 0.00     0.0474)  ( 0.00     0.0545)  ( 0.00     0.0556)  ( 0.00     0.0569)
                     ( 0.00     0.0644)  ( 0.00     0.0655)  ( 0.00     0.0657)  ( 0.00     0.0676)

 CYCLE    5
  SDIIS (wt  0.000):  0.4764  0.1283  0.0154  0.3799
 A-DIIS (wt  1.000):  0.5072  0.1452  0.0056  0.3420
  DIIS coefficients:  0.5072  0.1452  0.0056  0.3420
 SCF Error: norm([F,P])=      3.127811052869, max([F,P])=      0.279736218244
 orbitals (Q,E):
 ---------------
 A1/2 :362...381     ( 1.00    -0.1992)  ( 1.00    -0.1986)  ( 1.00    -0.1962)  ( 1.00    -0.1958)
                     ( 1.00    -0.1925)  ( 1.00    -0.1912)  ( 1.00    -0.1896)  ( 1.00    -0.1876)
                     ( 1.00    -0.1872)  ( 1.00    -0.1865)  ( 0.00    -0.1862)  ( 0.00    -0.1840)
                     ( 0.00    -0.1774)  ( 0.00    -0.1762)  ( 0.00    -0.1749)  ( 0.00    -0.1734)
                     ( 0.00    -0.1663)  ( 0.00    -0.1643)  ( 0.00    -0.1611)  ( 0.00    -0.1550)

 CYCLE    6
  SDIIS (wt  0.000):  0.4705  0.1268  0.0043  0.3844  0.0139
 A-DIIS (wt  1.000):  0.4999  0.1426  0.0000  0.3386  0.0189
  DIIS coefficients:  0.4999  0.1426  0.0000  0.3386  0.0189
 SCF Error: norm([F,P])=     17.381129544064, max([F,P])=      2.097467191503
 orbitals (Q,E):
 ---------------
 A1/2 :362...381     ( 1.00    -0.1846)  ( 1.00    -0.1843)  ( 1.00    -0.1761)  ( 1.00    -0.1705)
                     ( 1.00    -0.1689)  ( 1.00    -0.1650)  ( 1.00    -0.1648)  ( 1.00    -0.1455)
                     ( 1.00    -0.1422)  ( 1.00    -0.0956)  ( 0.00    -0.0952)  ( 0.00    -0.0941)
                     ( 0.00    -0.0940)  ( 0.00    -0.0866)  ( 0.00    -0.0864)  ( 0.00    -0.0845)
                     ( 0.00    -0.0844)  ( 0.00    -0.0793)  ( 0.00    -0.0793)  ( 0.00    -0.0756)

 CYCLE    7
  SDIIS (wt  0.000):  0.3130  0.1076 -0.0024  0.2242 -0.0071  0.3647
 A-DIIS (wt  1.000):  0.1779  0.1076  0.0000  0.0197  0.0000  0.6948
  DIIS coefficients:  0.1779  0.1076  0.0000  0.0197  0.0000  0.6948
 SCF Error: norm([F,P])=      1.540881729075, max([F,P])=      0.166102126966
 orbitals (Q,E):
 ---------------
 A1/2 :362...381     ( 1.00    -0.1293)  ( 1.00    -0.1247)  ( 1.00    -0.1170)  ( 1.00    -0.0894)
                     ( 1.00    -0.0868)  ( 1.00    -0.0860)  ( 1.00    -0.0833)  ( 1.00    -0.0812)
                     ( 1.00    -0.0764)  ( 1.00    -0.0716)  ( 0.00    -0.0655)  ( 0.00    -0.0579)
                     ( 0.00    -0.0531)  ( 0.00    -0.0519)  ( 0.00    -0.0501)  ( 0.00    -0.0483)
                     ( 0.00    -0.0436)  ( 0.00    -0.0403)  ( 0.00    -0.0390)  ( 0.00    -0.0338)

 CYCLE    8
  SDIIS (wt  0.000):  0.3080  0.0875 -0.0023  0.2057 -0.0071  0.3851  0.0231
 A-DIIS (wt  1.000):  0.1566  0.0000  0.0000  0.0000  0.0000  0.7204  0.1230
  DIIS coefficients:  0.1566  0.0000  0.0000  0.0000  0.0000  0.7204  0.1230
 SCF Error: norm([F,P])=      6.277468846987, max([F,P])=      1.495166103352
 orbitals (Q,E):
 ---------------
 A1/2 :362...381     ( 1.00    -0.2035)  ( 1.00    -0.1890)  ( 1.00    -0.1886)  ( 1.00    -0.1816)
                     ( 1.00    -0.1803)  ( 1.00    -0.1665)  ( 1.00    -0.1634)  ( 1.00    -0.1487)
                     ( 1.00    -0.1455)  ( 1.00    -0.0976)  ( 0.00    -0.0951)  ( 0.00    -0.0908)
                     ( 0.00    -0.0880)  ( 0.00    -0.0849)  ( 0.00    -0.0810)  ( 0.00    -0.0606)
                     ( 0.00    -0.0559)  ( 0.00    -0.0542)  ( 0.00    -0.0516)  ( 0.00    -0.0499)

 CYCLE    9
  SDIIS (wt  0.000):  0.1601  0.0407  0.0038  0.0950 -0.0058  0.4085  0.0149  0.2830
 A-DIIS (wt  1.000):  0.0000  0.0000  0.0000  0.0000  0.0000  0.4630  0.0000  0.5370
  DIIS coefficients:  0.0000  0.0000  0.0000  0.0000  0.0000  0.4630  0.0000  0.5370
 SCF Error: norm([F,P])=      1.524383555459, max([F,P])=      0.189504828266
 orbitals (Q,E):
 ---------------
 A1/2 :362...381     ( 1.00    -0.1861)  ( 1.00    -0.1812)  ( 1.00    -0.1792)  ( 1.00    -0.1485)
                     ( 1.00    -0.1232)  ( 1.00    -0.1216)  ( 1.00    -0.1105)  ( 1.00    -0.1098)
                     ( 1.00    -0.1055)  ( 1.00    -0.1045)  ( 0.00    -0.0545)  ( 0.00    -0.0513)
                     ( 0.00    -0.0469)  ( 0.00    -0.0454)  ( 0.00    -0.0395)  ( 0.00    -0.0366)
                     ( 0.00    -0.0338)  ( 0.00    -0.0332)  ( 0.00    -0.0325)  ( 0.00    -0.0277)

 CYCLE   10
  SDIIS (wt  0.000):  0.0699  0.0174  0.0029  0.0319 -0.0045  0.3470 -0.0220  0.3004  0.2569
 A-DIIS (wt  1.000):  0.0000  0.0000  0.0000  0.0000  0.0000  0.3714  0.0000  0.3616  0.2670
  DIIS coefficients:  0.0000  0.0000  0.0000  0.0000  0.0000  0.3714  0.0000  0.3616  0.2670
 SCF Error: norm([F,P])=      1.244832439349, max([F,P])=      0.165229565758
 orbitals (Q,E):
 ---------------
 A1/2 :362...381     ( 1.00    -0.2176)  ( 1.00    -0.2125)  ( 1.00    -0.2114)  ( 1.00    -0.1994)
                     ( 1.00    -0.1988)  ( 1.00    -0.1892)  ( 1.00    -0.1876)  ( 1.00    -0.1838)
                     ( 1.00    -0.1822)  ( 1.00    -0.0785)  ( 0.00    -0.0322)  ( 0.00     0.0157)
                     ( 0.00     0.0197)  ( 0.00     0.0271)  ( 0.00     0.0289)  ( 0.00     0.0295)
                     ( 0.00     0.0314)  ( 0.00     0.0325)  ( 0.00     0.0340)  ( 0.00     0.0367)

 CYCLE   11
  SDIIS (wt  0.483): -0.0107  0.0034  0.0011  0.0156 -0.0013  0.1645 -0.0035 -0.0330  0.0532  0.8106
 A-DIIS (wt  0.517):  0.0000  0.0000  0.0000  0.0000  0.0000  0.1223  0.0000  0.0000  0.0000  0.8777
  DIIS coefficients: -0.0052  0.0016  0.0005  0.0075 -0.0006  0.1427 -0.0017 -0.0159  0.0257  0.8453
 SCF Error: norm([F,P])=      0.400600439693, max([F,P])=      0.052225419877
 orbitals (Q,E):
 ---------------
 A1/2 :362...381     ( 1.00    -0.2078)  ( 1.00    -0.1998)  ( 1.00    -0.1988)  ( 1.00    -0.1957)
                     ( 1.00    -0.1948)  ( 1.00    -0.1923)  ( 1.00    -0.1918)  ( 1.00    -0.1912)
                     ( 1.00    -0.1907)  ( 1.00    -0.1241)  ( 0.00    -0.0791)  ( 0.00    -0.0490)
                     ( 0.00    -0.0465)  ( 0.00    -0.0432)  ( 0.00    -0.0410)  ( 0.00    -0.0402)
                     ( 0.00    -0.0374)  ( 0.00    -0.0371)  ( 0.00    -0.0335)  ( 0.00    -0.0313)

 CYCLE   12
  SDIIS (wt  0.483): -0.0034  0.0001  0.0034 -0.0008  0.0652  0.0016 -0.0309 -0.0517  0.6053  0.4111
 A-DIIS (wt  0.517):  0.0000  0.0000  0.0000  0.0000  0.0000  0.0000  0.0000  0.0000  0.4252  0.5748
  DIIS coefficients: -0.0017  0.0001  0.0016 -0.0004  0.0315  0.0008 -0.0149 -0.0249  0.5121  0.4958
 SCF Error: norm([F,P])=      0.349191262952, max([F,P])=      0.052973879284
 orbitals (Q,E):
 ---------------
 A1/2 :362...381     ( 1.00    -0.2083)  ( 1.00    -0.2008)  ( 1.00    -0.2007)  ( 1.00    -0.1978)
                     ( 1.00    -0.1977)  ( 1.00    -0.1962)  ( 1.00    -0.1960)  ( 1.00    -0.1924)
                     ( 1.00    -0.1921)  ( 1.00    -0.1038)  ( 0.00    -0.0427)  ( 0.00    -0.0338)
                     ( 0.00    -0.0334)  ( 0.00    -0.0328)  ( 0.00    -0.0281)  ( 0.00    -0.0278)
                     ( 0.00    -0.0245)  ( 0.00    -0.0243)  ( 0.00    -0.0222)  ( 0.00    -0.0218)

 CYCLE   13
  SDIIS (wt  0.857): -0.0003  0.0021 -0.0001 -0.0080 -0.0013 -0.0110 -0.0204  0.1907  0.3312  0.5172
 A-DIIS (wt  0.143):  0.0000  0.0000  0.0000  0.0000  0.0000  0.0000  0.0000  0.0000  0.1705  0.8295
  DIIS coefficients: -0.0003  0.0018 -0.0001 -0.0069 -0.0011 -0.0095 -0.0174  0.1634  0.3082  0.5619
 SCF Error: norm([F,P])=      0.133823619394, max([F,P])=      0.015168762267
 orbitals (Q,E):
 ---------------
 A1/2 :362...381     ( 1.00    -0.2094)  ( 1.00    -0.2014)  ( 1.00    -0.2013)  ( 1.00    -0.1976)
                     ( 1.00    -0.1975)  ( 1.00    -0.1954)  ( 1.00    -0.1953)  ( 1.00    -0.1926)
                     ( 1.00    -0.1923)  ( 1.00    -0.1175)  ( 0.00    -0.0231)  ( 0.00    -0.0226)
                     ( 0.00    -0.0211)  ( 0.00    -0.0210)  ( 0.00    -0.0159)  ( 0.00    -0.0158)
                     ( 0.00    -0.0128)  ( 0.00    -0.0127)  ( 0.00    -0.0106)  ( 0.00    -0.0106)

 CYCLE   14
  SDIIS (wt  0.949):  0.0011 -0.0000 -0.0047  0.0000  0.0011  0.0006  0.0371  0.1054  0.3912  0.4682
 A-DIIS (wt  0.051):  0.0000  0.0000  0.0000  0.0000  0.0000  0.0000  0.0000  0.0000  0.2240  0.7760
  DIIS coefficients:  0.0010 -0.0000 -0.0045  0.0000  0.0010  0.0005  0.0352  0.1000  0.3826  0.4840
 SCF Error: norm([F,P])=      0.067788041093, max([F,P])=      0.006096806359
 orbitals (Q,E):
 ---------------
 A1/2 :362...381     ( 1.00    -0.2094)  ( 1.00    -0.2008)  ( 1.00    -0.2008)  ( 1.00    -0.1982)
                     ( 1.00    -0.1981)  ( 1.00    -0.1950)  ( 1.00    -0.1949)  ( 1.00    -0.1933)
                     ( 1.00    -0.1930)  ( 1.00    -0.1247)  ( 0.00    -0.0257)  ( 0.00    -0.0252)
                     ( 0.00    -0.0241)  ( 0.00    -0.0240)  ( 0.00    -0.0191)  ( 0.00    -0.0190)
                     ( 0.00    -0.0154)  ( 0.00    -0.0154)  ( 0.00    -0.0133)  ( 0.00    -0.0133)

 CYCLE   15
  SDIIS (wt  0.976): -0.0000 -0.0003  0.0001  0.0013  0.0007  0.0202  0.0394  0.1503  0.2486  0.5398
 A-DIIS (wt  0.024):  0.0000  0.0000  0.0000  0.0000  0.0000  0.0000  0.0000  0.0000  0.0000  1.0000
  DIIS coefficients: -0.0000 -0.0003  0.0001  0.0013  0.0006  0.0197  0.0385  0.1467  0.2427  0.5507
 SCF Error: norm([F,P])=      0.018128332015, max([F,P])=      0.003337526966
 orbitals (Q,E):
 ---------------
 A1/2 :362...381     ( 1.00    -0.2090)  ( 1.00    -0.2008)  ( 1.00    -0.2007)  ( 1.00    -0.1982)
                     ( 1.00    -0.1982)  ( 1.00    -0.1947)  ( 1.00    -0.1946)  ( 1.00    -0.1934)
                     ( 1.00    -0.1931)  ( 1.00    -0.1256)  ( 0.00    -0.0242)  ( 0.00    -0.0240)
                     ( 0.00    -0.0226)  ( 0.00    -0.0225)  ( 0.00    -0.0178)  ( 0.00    -0.0177)
                     ( 0.00    -0.0139)  ( 0.00    -0.0138)  ( 0.00    -0.0117)  ( 0.00    -0.0117)

 CYCLE   16
  SDIIS (wt  0.977):  0.0018 -0.0000  0.0002 -0.0003  0.0195  0.0161  0.0331  0.0839  0.3861  0.4597
 A-DIIS (wt  0.023):  0.0000  0.0000  0.0000  0.0000  0.0000  0.0000  0.0000  0.0000  0.0000  1.0000
  DIIS coefficients:  0.0017 -0.0000  0.0002 -0.0003  0.0191  0.0157  0.0324  0.0820  0.3771  0.4722
 SCF Error: norm([F,P])=      0.013239533793, max([F,P])=      0.003290386100
 orbitals (Q,E):
 ---------------
 A1/2 :362...381     ( 1.00    -0.2089)  ( 1.00    -0.2008)  ( 1.00    -0.2007)  ( 1.00    -0.1982)
                     ( 1.00    -0.1982)  ( 1.00    -0.1946)  ( 1.00    -0.1946)  ( 1.00    -0.1936)
                     ( 1.00    -0.1933)  ( 1.00    -0.1269)  ( 0.00    -0.0245)  ( 0.00    -0.0240)
                     ( 0.00    -0.0227)  ( 0.00    -0.0226)  ( 0.00    -0.0178)  ( 0.00    -0.0178)
                     ( 0.00    -0.0139)  ( 0.00    -0.0139)  ( 0.00    -0.0117)  ( 0.00    -0.0117)

 CYCLE   17
  SDIIS (wt  0.977): -0.0001 -0.0005 -0.0013  0.0097  0.0110  0.0183  0.0357  0.1613  0.2777  0.4882
 A-DIIS (wt  0.023):  0.0000  0.0000  0.0000  0.0000  0.0000  0.0000  0.0000  0.0000  0.0000  1.0000
  DIIS coefficients: -0.0001 -0.0005 -0.0012  0.0095  0.0108  0.0179  0.0349  0.1577  0.2714  0.4997
 SCF Error: norm([F,P])=      0.009647543160, max([F,P])=      0.003235660826
 orbitals (Q,E):
 ---------------
 A1/2 :362...381     ( 1.00    -0.2089)  ( 1.00    -0.2008)  ( 1.00    -0.2007)  ( 1.00    -0.1982)
                     ( 1.00    -0.1982)  ( 1.00    -0.1946)  ( 1.00    -0.1946)  ( 1.00    -0.1935)
                     ( 1.00    -0.1933)  ( 1.00    -0.1269)  ( 0.00    -0.0245)  ( 0.00    -0.0244)
                     ( 0.00    -0.0230)  ( 0.00    -0.0230)  ( 0.00    -0.0181)  ( 0.00    -0.0181)
                     ( 0.00    -0.0143)  ( 0.00    -0.0142)  ( 0.00    -0.0121)  ( 0.00    -0.0121)

 CYCLE   18
  SDIIS (wt  0.978):  0.0010 -0.0021  0.0017 -0.0005 -0.0213 -0.0606 -0.2336 -0.2646  0.0231  1.5570
 A-DIIS (wt  0.022):  0.0000  0.0000  0.0000  0.0000  0.0000  0.0000  0.0000  0.0000  0.0000  1.0000
  DIIS coefficients:  0.0010 -0.0021  0.0016 -0.0005 -0.0209 -0.0592 -0.2284 -0.2588  0.0226  1.5448
 SCF Error: norm([F,P])=      0.008988271567, max([F,P])=      0.003168063629
 orbitals (Q,E):
 ---------------
 A1/2 :362...381     ( 1.00    -0.2090)  ( 1.00    -0.2008)  ( 1.00    -0.2007)  ( 1.00    -0.1982)
                     ( 1.00    -0.1982)  ( 1.00    -0.1946)  ( 1.00    -0.1946)  ( 1.00    -0.1935)
                     ( 1.00    -0.1933)  ( 1.00    -0.1291)  ( 0.00    -0.0242)  ( 0.00    -0.0242)
                     ( 0.00    -0.0228)  ( 0.00    -0.0228)  ( 0.00    -0.0179)  ( 0.00    -0.0179)
                     ( 0.00    -0.0140)  ( 0.00    -0.0140)  ( 0.00    -0.0119)  ( 0.00    -0.0119)

 CYCLE   19
  SDIIS (wt  0.981): -0.0012  0.0139  0.0139 -0.0085 -0.0531 -0.1298 -0.2233 -0.8564  0.2798  1.9648
 A-DIIS (wt  0.019):  0.0000  0.0000  0.0000  0.0000  0.0000  0.0000  0.0000  0.0000  0.0000  1.0000
  DIIS coefficients: -0.0011  0.0136  0.0136 -0.0084 -0.0521 -0.1273 -0.2191 -0.8402  0.2745  1.9465
 SCF Error: norm([F,P])=      0.008253123016, max([F,P])=      0.002877997119
 orbitals (Q,E):
 ---------------
 A1/2 :362...381     ( 1.00    -0.2089)  ( 1.00    -0.2007)  ( 1.00    -0.2007)  ( 1.00    -0.1982)
                     ( 1.00    -0.1981)  ( 1.00    -0.1946)  ( 1.00    -0.1946)  ( 1.00    -0.1935)
                     ( 1.00    -0.1934)  ( 1.00    -0.1346)  ( 0.00    -0.0242)  ( 0.00    -0.0241)
                     ( 0.00    -0.0227)  ( 0.00    -0.0226)  ( 0.00    -0.0179)  ( 0.00    -0.0178)
                     ( 0.00    -0.0140)  ( 0.00    -0.0139)  ( 0.00    -0.0118)  ( 0.00    -0.0118)

 CYCLE   20
  SDIIS (wt  0.988):  0.0168  0.0258  0.0363  0.0339  0.1317  0.0231 -0.8999 -1.0238  1.8083  0.8476
 A-DIIS (wt  0.012):  0.0000  0.0000  0.0000  0.0000  0.0000  0.0000  0.0000  0.0000  0.0000  1.0000
  DIIS coefficients:  0.0166  0.0255  0.0359  0.0335  0.1302  0.0229 -0.8895 -1.0120  1.7874  0.8494
 SCF Error: norm([F,P])=      0.007431824651, max([F,P])=      0.002142573376
 orbitals (Q,E):
 ---------------
 A1/2 :362...381     ( 1.00    -0.2088)  ( 1.00    -0.2008)  ( 1.00    -0.2007)  ( 1.00    -0.1982)
                     ( 1.00    -0.1982)  ( 1.00    -0.1946)  ( 1.00    -0.1946)  ( 1.00    -0.1936)
                     ( 1.00    -0.1935)  ( 1.00    -0.1383)  ( 0.00    -0.0240)  ( 0.00    -0.0240)
                     ( 0.00    -0.0226)  ( 0.00    -0.0225)  ( 0.00    -0.0177)  ( 0.00    -0.0177)
                     ( 0.00    -0.0138)  ( 0.00    -0.0138)  ( 0.00    -0.0117)  ( 0.00    -0.0117)

 CYCLE   21
  SDIIS (wt  0.996):  0.0034  0.0311  0.0765  0.2153  0.2447  0.3409 -0.6899 -0.6030  0.4199  0.9611
 A-DIIS (wt  0.004):  0.0000  0.0000  0.0000  0.0000  0.0000  0.0000  0.0000  0.0000  0.0000  1.0000
  DIIS coefficients:  0.0034  0.0309  0.0762  0.2143  0.2436  0.3394 -0.6868 -0.6003  0.4180  0.9613
 SCF Error: norm([F,P])=      0.005816826072, max([F,P])=      0.001444433460
 orbitals (Q,E):
 ---------------
 A1/2 :362...381     ( 1.00    -0.2089)  ( 1.00    -0.2007)  ( 1.00    -0.2007)  ( 1.00    -0.1982)
                     ( 1.00    -0.1981)  ( 1.00    -0.1945)  ( 1.00    -0.1945)  ( 1.00    -0.1936)
                     ( 1.00    -0.1935)  ( 1.00    -0.1309)  ( 0.00    -0.0239)  ( 0.00    -0.0239)
                     ( 0.00    -0.0225)  ( 0.00    -0.0225)  ( 0.00    -0.0177)  ( 0.00    -0.0176)
                     ( 0.00    -0.0137)  ( 0.00    -0.0137)  ( 0.00    -0.0116)  ( 0.00    -0.0116)

 CYCLE   22
  SDIIS (wt  0.996):  0.0230  0.0526  0.1355  0.1875  0.5133 -0.0788 -1.3611 -0.1382  0.8531  0.8128
 A-DIIS (wt  0.004):  0.0000  0.0000  0.0000  0.0000  0.0000  0.0000  0.0000  0.0000  0.0000  1.0000
  DIIS coefficients:  0.0229  0.0524  0.1349  0.1867  0.5111 -0.0784 -1.3550 -0.1376  0.8493  0.8137
 SCF Error: norm([F,P])=      0.005430546088, max([F,P])=      0.001442660475
 orbitals (Q,E):
 ---------------
 A1/2 :362...381     ( 1.00    -0.2089)  ( 1.00    -0.2007)  ( 1.00    -0.2007)  ( 1.00    -0.1982)
                     ( 1.00    -0.1981)  ( 1.00    -0.1946)  ( 1.00    -0.1946)  ( 1.00    -0.1935)
                     ( 1.00    -0.1934)  ( 1.00    -0.1313)  ( 0.00    -0.0243)  ( 0.00    -0.0242)
                     ( 0.00    -0.0228)  ( 0.00    -0.0228)  ( 0.00    -0.0180)  ( 0.00    -0.0179)
                     ( 0.00    -0.0141)  ( 0.00    -0.0141)  ( 0.00    -0.0119)  ( 0.00    -0.0119)

 CYCLE   23
  SDIIS (wt  1.000):  0.0048  0.0620  0.1383  0.2973 -0.1833 -0.7326 -0.0643  0.4793  0.5095  0.4890
 A-DIIS (wt  0.000):  0.0000  0.0000  0.0000  0.0000  0.0000  0.0000  0.0000  0.0000  0.0000  1.0000
  DIIS coefficients:  0.0048  0.0620  0.1382  0.2972 -0.1833 -0.7323 -0.0642  0.4791  0.5093  0.4892
 SCF Error: norm([F,P])=      0.004429857835, max([F,P])=      0.001036229190
 orbitals (Q,E):
 ---------------
 A1/2 :362...381     ( 1.00    -0.2089)  ( 1.00    -0.2007)  ( 1.00    -0.2007)  ( 1.00    -0.1982)
                     ( 1.00    -0.1981)  ( 1.00    -0.1946)  ( 1.00    -0.1946)  ( 1.00    -0.1936)
                     ( 1.00    -0.1935)  ( 1.00    -0.1355)  ( 0.00    -0.0239)  ( 0.00    -0.0239)
                     ( 0.00    -0.0224)  ( 0.00    -0.0224)  ( 0.00    -0.0176)  ( 0.00    -0.0176)
                     ( 0.00    -0.0137)  ( 0.00    -0.0137)  ( 0.00    -0.0115)  ( 0.00    -0.0115)

 CYCLE   24
  SDIIS (wt  1.000):  0.0228  0.0678  0.2132  0.1800 -0.5938 -0.1941  0.1606  0.1989  0.2429  0.7018
  DIIS coefficients:  0.0228  0.0678  0.2132  0.1800 -0.5938 -0.1941  0.1606  0.1989  0.2429  0.7018
 SCF Error: norm([F,P])=      0.003480572786, max([F,P])=      0.000791968772
 orbitals (Q,E):
 ---------------
 A1/2 :362...381     ( 1.00    -0.2089)  ( 1.00    -0.2007)  ( 1.00    -0.2007)  ( 1.00    -0.1981)
                     ( 1.00    -0.1981)  ( 1.00    -0.1945)  ( 1.00    -0.1945)  ( 1.00    -0.1935)
                     ( 1.00    -0.1935)  ( 1.00    -0.1327)  ( 0.00    -0.0241)  ( 0.00    -0.0240)
                     ( 0.00    -0.0226)  ( 0.00    -0.0225)  ( 0.00    -0.0177)  ( 0.00    -0.0177)
                     ( 0.00    -0.0138)  ( 0.00    -0.0138)  ( 0.00    -0.0117)  ( 0.00    -0.0117)

 CYCLE   25
  SDIIS (wt  1.000):  0.0191  0.0402  0.3204 -0.0914 -0.1530 -0.2064 -0.5216 -0.8467  0.9540  1.4853
  DIIS coefficients:  0.0191  0.0402  0.3204 -0.0914 -0.1530 -0.2064 -0.5216 -0.8467  0.9540  1.4853
 SCF Error: norm([F,P])=      0.003700261166, max([F,P])=      0.000798097250
 orbitals (Q,E):
 ---------------
 A1/2 :362...381     ( 1.00    -0.2089)  ( 1.00    -0.2007)  ( 1.00    -0.2006)  ( 1.00    -0.1981)
                     ( 1.00    -0.1981)  ( 1.00    -0.1945)  ( 1.00    -0.1945)  ( 1.00    -0.1936)
                     ( 1.00    -0.1935)  ( 1.00    -0.1309)  ( 0.00    -0.0241)  ( 0.00    -0.0241)
                     ( 0.00    -0.0226)  ( 0.00    -0.0226)  ( 0.00    -0.0178)  ( 0.00    -0.0178)
                     ( 0.00    -0.0139)  ( 0.00    -0.0139)  ( 0.00    -0.0118)  ( 0.00    -0.0117)

 CYCLE   26
  SDIIS (wt  1.000): -0.0046  0.3504 -0.0240 -0.1149 -0.1822 -0.6536 -1.2362  0.8871  1.5826  0.3954
  DIIS coefficients: -0.0046  0.3504 -0.0240 -0.1149 -0.1822 -0.6536 -1.2362  0.8871  1.5826  0.3954
 SCF Error: norm([F,P])=      0.004187061028, max([F,P])=      0.000784769945
 orbitals (Q,E):
 ---------------
 A1/2 :362...381     ( 1.00    -0.2089)  ( 1.00    -0.2007)  ( 1.00    -0.2006)  ( 1.00    -0.1981)
                     ( 1.00    -0.1981)  ( 1.00    -0.1945)  ( 1.00    -0.1945)  ( 1.00    -0.1936)
                     ( 1.00    -0.1935)  ( 1.00    -0.1315)  ( 0.00    -0.0241)  ( 0.00    -0.0241)
                     ( 0.00    -0.0226)  ( 0.00    -0.0226)  ( 0.00    -0.0178)  ( 0.00    -0.0178)
                     ( 0.00    -0.0139)  ( 0.00    -0.0139)  ( 0.00    -0.0118)  ( 0.00    -0.0117)

 CYCLE   27
  SDIIS (wt  1.000):  0.3781 -0.0995 -0.1300 -0.0951 -0.5620 -1.1751  0.8731  1.1745 -0.0858  0.7218
  DIIS coefficients:  0.3781 -0.0995 -0.1300 -0.0951 -0.5620 -1.1751  0.8731  1.1745 -0.0858  0.7218
 SCF Error: norm([F,P])=      0.003903756862, max([F,P])=      0.000770498478
 orbitals (Q,E):
 ---------------
 A1/2 :362...381     ( 1.00    -0.2089)  ( 1.00    -0.2007)  ( 1.00    -0.2006)  ( 1.00    -0.1981)
                     ( 1.00    -0.1981)  ( 1.00    -0.1945)  ( 1.00    -0.1945)  ( 1.00    -0.1936)
                     ( 1.00    -0.1935)  ( 1.00    -0.1321)  ( 0.00    -0.0241)  ( 0.00    -0.0240)
                     ( 0.00    -0.0226)  ( 0.00    -0.0226)  ( 0.00    -0.0178)  ( 0.00    -0.0177)
                     ( 0.00    -0.0139)  ( 0.00    -0.0139)  ( 0.00    -0.0117)  ( 0.00    -0.0117)

 CYCLE   28
  SDIIS (wt  1.000):  0.0572 -0.0614  0.0741 -0.1606 -0.4287  0.6456  0.2266 -1.2044  0.3687  1.4830
  DIIS coefficients:  0.0572 -0.0614  0.0741 -0.1606 -0.4287  0.6456  0.2266 -1.2044  0.3687  1.4830
 SCF Error: norm([F,P])=      0.003748273171, max([F,P])=      0.000723310900
 orbitals (Q,E):
 ---------------
 A1/2 :362...381     ( 1.00    -0.2088)  ( 1.00    -0.2007)  ( 1.00    -0.2006)  ( 1.00    -0.1981)
                     ( 1.00    -0.1981)  ( 1.00    -0.1945)  ( 1.00    -0.1945)  ( 1.00    -0.1936)
                     ( 1.00    -0.1935)  ( 1.00    -0.1365)  ( 0.00    -0.0239)  ( 0.00    -0.0239)
                     ( 0.00    -0.0225)  ( 0.00    -0.0224)  ( 0.00    -0.0176)  ( 0.00    -0.0176)
                     ( 0.00    -0.0137)  ( 0.00    -0.0137)  ( 0.00    -0.0116)  ( 0.00    -0.0116)

 CYCLE   29
  SDIIS (wt  1.000): -0.1291  0.0780  0.3496  0.4078  0.3159 -0.9475 -1.7505 -0.1131  2.0980  0.6909
  DIIS coefficients: -0.1291  0.0780  0.3496  0.4078  0.3159 -0.9475 -1.7505 -0.1131  2.0980  0.6909
 SCF Error: norm([F,P])=      0.002759154254, max([F,P])=      0.000618231798
 orbitals (Q,E):
 ---------------
 A1/2 :362...381     ( 1.00    -0.2088)  ( 1.00    -0.2007)  ( 1.00    -0.2006)  ( 1.00    -0.1981)
                     ( 1.00    -0.1981)  ( 1.00    -0.1945)  ( 1.00    -0.1945)  ( 1.00    -0.1936)
                     ( 1.00    -0.1935)  ( 1.00    -0.1373)  ( 0.00    -0.0236)  ( 0.00    -0.0236)
                     ( 0.00    -0.0222)  ( 0.00    -0.0222)  ( 0.00    -0.0174)  ( 0.00    -0.0173)
                     ( 0.00    -0.0135)  ( 0.00    -0.0134)  ( 0.00    -0.0113)  ( 0.00    -0.0113)

 CYCLE   30
  SDIIS (wt  1.000): -0.0189  0.3351  0.5723 -0.2392 -0.7086 -0.6685 -0.5325  1.0130  0.5892  0.6581
  DIIS coefficients: -0.0189  0.3351  0.5723 -0.2392 -0.7086 -0.6685 -0.5325  1.0130  0.5892  0.6581
 SCF Error: norm([F,P])=      0.002432727734, max([F,P])=      0.000491056685
 orbitals (Q,E):
 ---------------
 A1/2 :362...381     ( 1.00    -0.2089)  ( 1.00    -0.2007)  ( 1.00    -0.2006)  ( 1.00    -0.1981)
                     ( 1.00    -0.1981)  ( 1.00    -0.1945)  ( 1.00    -0.1945)  ( 1.00    -0.1936)
                     ( 1.00    -0.1935)  ( 1.00    -0.1354)  ( 0.00    -0.0240)  ( 0.00    -0.0240)
                     ( 0.00    -0.0225)  ( 0.00    -0.0225)  ( 0.00    -0.0177)  ( 0.00    -0.0177)
                     ( 0.00    -0.0138)  ( 0.00    -0.0138)  ( 0.00    -0.0117)  ( 0.00    -0.0117)

 CYCLE   31
  SDIIS (wt  1.000):  0.2659  0.4138 -0.2659 -0.5493 -0.3513 -0.4532  0.5615  0.4141  0.5701  0.3943
  DIIS coefficients:  0.2659  0.4138 -0.2659 -0.5493 -0.3513 -0.4532  0.5615  0.4141  0.5701  0.3943
 SCF Error: norm([F,P])=      0.002195786685, max([F,P])=      0.000438864598
 orbitals (Q,E):
 ---------------
 A1/2 :362...381     ( 1.00    -0.2089)  ( 1.00    -0.2006)  ( 1.00    -0.2006)  ( 1.00    -0.1981)
                     ( 1.00    -0.1980)  ( 1.00    -0.1945)  ( 1.00    -0.1945)  ( 1.00    -0.1936)
                     ( 1.00    -0.1935)  ( 1.00    -0.1365)  ( 0.00    -0.0239)  ( 0.00    -0.0239)
                     ( 0.00    -0.0224)  ( 0.00    -0.0224)  ( 0.00    -0.0176)  ( 0.00    -0.0176)
                     ( 0.00    -0.0137)  ( 0.00    -0.0137)  ( 0.00    -0.0116)  ( 0.00    -0.0116)

 CYCLE   32
  SDIIS (wt  1.000): -0.0016 -0.1749  0.1795  0.4511 -0.3706 -0.3984  0.0974  0.2256  0.1323  0.8596
  DIIS coefficients: -0.0016 -0.1749  0.1795  0.4511 -0.3706 -0.3984  0.0974  0.2256  0.1323  0.8596
 SCF Error: norm([F,P])=      0.001553812004, max([F,P])=      0.000390354501
 orbitals (Q,E):
 ---------------
 A1/2 :362...381     ( 1.00    -0.2089)  ( 1.00    -0.2006)  ( 1.00    -0.2006)  ( 1.00    -0.1981)
                     ( 1.00    -0.1980)  ( 1.00    -0.1945)  ( 1.00    -0.1945)  ( 1.00    -0.1936)
                     ( 1.00    -0.1935)  ( 1.00    -0.1366)  ( 0.00    -0.0239)  ( 0.00    -0.0239)
                     ( 0.00    -0.0225)  ( 0.00    -0.0224)  ( 0.00    -0.0176)  ( 0.00    -0.0176)
                     ( 0.00    -0.0137)  ( 0.00    -0.0137)  ( 0.00    -0.0116)  ( 0.00    -0.0116)

 CYCLE   33
  SDIIS (wt  1.000): -0.0953  0.1283  0.3987 -0.1473 -0.4474 -0.0009  0.0173 -0.1495  0.3334  0.9627
  DIIS coefficients: -0.0953  0.1283  0.3987 -0.1473 -0.4474 -0.0009  0.0173 -0.1495  0.3334  0.9627
 SCF Error: norm([F,P])=      0.001242527827, max([F,P])=      0.000367933022
 orbitals (Q,E):
 ---------------
 A1/2 :362...381     ( 1.00    -0.2088)  ( 1.00    -0.2006)  ( 1.00    -0.2006)  ( 1.00    -0.1981)
                     ( 1.00    -0.1980)  ( 1.00    -0.1945)  ( 1.00    -0.1945)  ( 1.00    -0.1936)
                     ( 1.00    -0.1935)  ( 1.00    -0.1360)  ( 0.00    -0.0238)  ( 0.00    -0.0238)
                     ( 0.00    -0.0224)  ( 0.00    -0.0223)  ( 0.00    -0.0176)  ( 0.00    -0.0175)
                     ( 0.00    -0.0136)  ( 0.00    -0.0136)  ( 0.00    -0.0115)  ( 0.00    -0.0115)

 CYCLE   34
  SDIIS (wt  1.000):  0.0428  0.0823  0.0079 -0.1741 -0.0417 -0.0998 -0.2407  0.0864  0.8356  0.5014
  DIIS coefficients:  0.0428  0.0823  0.0079 -0.1741 -0.0417 -0.0998 -0.2407  0.0864  0.8356  0.5014
 SCF Error: norm([F,P])=      0.001317606030, max([F,P])=      0.000364667795
 orbitals (Q,E):
 ---------------
 A1/2 :362...381     ( 1.00    -0.2088)  ( 1.00    -0.2006)  ( 1.00    -0.2006)  ( 1.00    -0.1981)
                     ( 1.00    -0.1980)  ( 1.00    -0.1945)  ( 1.00    -0.1945)  ( 1.00    -0.1936)
                     ( 1.00    -0.1935)  ( 1.00    -0.1366)  ( 0.00    -0.0239)  ( 0.00    -0.0239)
                     ( 0.00    -0.0224)  ( 0.00    -0.0224)  ( 0.00    -0.0176)  ( 0.00    -0.0175)
                     ( 0.00    -0.0137)  ( 0.00    -0.0137)  ( 0.00    -0.0115)  ( 0.00    -0.0115)

 CYCLE   35
  SDIIS (wt  1.000): -0.0292  0.0648 -0.0240 -0.0088 -0.0356 -0.1855 -0.0241 -0.0566 -0.1136  1.4125
  DIIS coefficients: -0.0292  0.0648 -0.0240 -0.0088 -0.0356 -0.1855 -0.0241 -0.0566 -0.1136  1.4125
 SCF Error: norm([F,P])=      0.001069694503, max([F,P])=      0.000355747985
 orbitals (Q,E):
 ---------------
 A1/2 :362...381     ( 1.00    -0.2089)  ( 1.00    -0.2006)  ( 1.00    -0.2006)  ( 1.00    -0.1981)
                     ( 1.00    -0.1980)  ( 1.00    -0.1945)  ( 1.00    -0.1945)  ( 1.00    -0.1936)
                     ( 1.00    -0.1935)  ( 1.00    -0.1370)  ( 0.00    -0.0239)  ( 0.00    -0.0239)
                     ( 0.00    -0.0224)  ( 0.00    -0.0224)  ( 0.00    -0.0176)  ( 0.00    -0.0176)
                     ( 0.00    -0.0137)  ( 0.00    -0.0137)  ( 0.00    -0.0116)  ( 0.00    -0.0115)

 CYCLE   36
  SDIIS (wt  1.000):  0.0423  0.0516  0.0848  0.1614  0.0533 -0.4875 -0.7352 -0.5839  1.1015  1.3117
  DIIS coefficients:  0.0423  0.0516  0.0848  0.1614  0.0533 -0.4875 -0.7352 -0.5839  1.1015  1.3117
 SCF Error: norm([F,P])=      0.001014147017, max([F,P])=      0.000333863479
 orbitals (Q,E):
 ---------------
 A1/2 :362...381     ( 1.00    -0.2089)  ( 1.00    -0.2006)  ( 1.00    -0.2006)  ( 1.00    -0.1981)
                     ( 1.00    -0.1980)  ( 1.00    -0.1945)  ( 1.00    -0.1945)  ( 1.00    -0.1936)
                     ( 1.00    -0.1935)  ( 1.00    -0.1360)  ( 0.00    -0.0239)  ( 0.00    -0.0239)
                     ( 0.00    -0.0224)  ( 0.00    -0.0224)  ( 0.00    -0.0176)  ( 0.00    -0.0176)
                     ( 0.00    -0.0137)  ( 0.00    -0.0137)  ( 0.00    -0.0116)  ( 0.00    -0.0115)

 CYCLE   37
  SDIIS (wt  1.000):  0.0199  0.1298  0.2595  0.2275 -0.3203 -1.1271 -0.9321  0.5906  1.4019  0.7503
  DIIS coefficients:  0.0199  0.1298  0.2595  0.2275 -0.3203 -1.1271 -0.9321  0.5906  1.4019  0.7503
 SCF Error: norm([F,P])=      0.001064405164, max([F,P])=      0.000292061548
 orbitals (Q,E):
 ---------------
 A1/2 :362...381     ( 1.00    -0.2089)  ( 1.00    -0.2006)  ( 1.00    -0.2006)  ( 1.00    -0.1981)
                     ( 1.00    -0.1980)  ( 1.00    -0.1945)  ( 1.00    -0.1945)  ( 1.00    -0.1936)
                     ( 1.00    -0.1935)  ( 1.00    -0.1364)  ( 0.00    -0.0239)  ( 0.00    -0.0239)
                     ( 0.00    -0.0225)  ( 0.00    -0.0224)  ( 0.00    -0.0176)  ( 0.00    -0.0176)
                     ( 0.00    -0.0137)  ( 0.00    -0.0137)  ( 0.00    -0.0116)  ( 0.00    -0.0116)

 CYCLE   38
  SDIIS (wt  1.000):  0.1119  0.2289  0.1688 -0.1320 -0.8717 -0.8405  0.3160  0.9928  0.4457  0.5802
  DIIS coefficients:  0.1119  0.2289  0.1688 -0.1320 -0.8717 -0.8405  0.3160  0.9928  0.4457  0.5802
 SCF Error: norm([F,P])=      0.000874080446, max([F,P])=      0.000240698565
 orbitals (Q,E):
 ---------------
 A1/2 :362...381     ( 1.00    -0.2089)  ( 1.00    -0.2006)  ( 1.00    -0.2006)  ( 1.00    -0.1981)
                     ( 1.00    -0.1980)  ( 1.00    -0.1945)  ( 1.00    -0.1945)  ( 1.00    -0.1936)
                     ( 1.00    -0.1935)  ( 1.00    -0.1366)  ( 0.00    -0.0239)  ( 0.00    -0.0239)
                     ( 0.00    -0.0224)  ( 0.00    -0.0224)  ( 0.00    -0.0176)  ( 0.00    -0.0176)
                     ( 0.00    -0.0137)  ( 0.00    -0.0137)  ( 0.00    -0.0115)  ( 0.00    -0.0115)

 CYCLE   39
  SDIIS (wt  1.000): -0.0020 -0.0737  0.0550  0.2060 -0.1264 -0.0702  0.0353 -0.4676  0.3019  1.1417
  DIIS coefficients: -0.0020 -0.0737  0.0550  0.2060 -0.1264 -0.0702  0.0353 -0.4676  0.3019  1.1417
 SCF Error: norm([F,P])=      0.000733105872, max([F,P])=      0.000210121230
 orbitals (Q,E):
 ---------------
 A1/2 :362...381     ( 1.00    -0.2089)  ( 1.00    -0.2006)  ( 1.00    -0.2006)  ( 1.00    -0.1981)
                     ( 1.00    -0.1980)  ( 1.00    -0.1945)  ( 1.00    -0.1945)  ( 1.00    -0.1936)
                     ( 1.00    -0.1935)  ( 1.00    -0.1370)  ( 0.00    -0.0239)  ( 0.00    -0.0239)
                     ( 0.00    -0.0225)  ( 0.00    -0.0224)  ( 0.00    -0.0176)  ( 0.00    -0.0176)
                     ( 0.00    -0.0137)  ( 0.00    -0.0137)  ( 0.00    -0.0116)  ( 0.00    -0.0116)

 CYCLE   40
  SDIIS (wt  1.000): -0.0560 -0.0512  0.3629  0.0851 -0.3423 -0.0280 -0.3495 -0.0242  0.7708  0.6325
  DIIS coefficients: -0.0560 -0.0512  0.3629  0.0851 -0.3423 -0.0280 -0.3495 -0.0242  0.7708  0.6325
 SCF Error: norm([F,P])=      0.000669618618, max([F,P])=      0.000175156569
 orbitals (Q,E):
 ---------------
 A1/2 :362...381     ( 1.00    -0.2089)  ( 1.00    -0.2006)  ( 1.00    -0.2006)  ( 1.00    -0.1981)
                     ( 1.00    -0.1980)  ( 1.00    -0.1945)  ( 1.00    -0.1945)  ( 1.00    -0.1936)
                     ( 1.00    -0.1935)  ( 1.00    -0.1370)  ( 0.00    -0.0239)  ( 0.00    -0.0239)
                     ( 0.00    -0.0224)  ( 0.00    -0.0224)  ( 0.00    -0.0176)  ( 0.00    -0.0176)
                     ( 0.00    -0.0137)  ( 0.00    -0.0137)  ( 0.00    -0.0116)  ( 0.00    -0.0115)

 CYCLE   41
[...]
     449        4.6444         0.000       
     448        4.5908         0.000       
     447        4.5249         0.000       
     446        4.4205         0.000       
     445        4.3919         0.000       
     444        4.2559         0.000       
     443        4.2264         0.000       
     442        4.2204         0.000       
     441        4.2147         0.000       
     440        4.0199         0.000       
     439        3.9802         0.000       
     438        3.9471         0.000       
     437        3.9276         0.000       
     436        3.9040         0.000       
     435        3.8484         0.000       
     434        3.8333         0.000       
     433        3.7544         0.000       
     432        3.7181         0.000       
     431        3.6860         0.000       
     430        3.6311         0.000       
     429        3.5803         0.000       
     428        3.5595         0.000       
     427        3.5392         0.000       
     426        3.5261         0.000       
     425        3.4960         0.000       
     424        3.4415         0.000       
     423        3.3508         0.000       
     422        3.3292         0.000       
     421        3.1987         0.000       
     420        3.1879         0.000       
     419        2.8937         0.000       
     418        2.8147         0.000       
     417        2.7798         0.000       
     416        2.6889         0.000       
     415        2.6178         0.000       
     414        2.5794         0.000       
     413        2.4892         0.000       
     412        2.4831         0.000       
     411        2.4454         0.000       
     410        2.3747         0.000       
     409        2.3297         0.000       
     408        2.2917         0.000       
     407        2.2868         0.000       
     406        2.0428         0.000       
     405        2.0200         0.000       
     404        2.0009         0.000       
     403        1.9533         0.000       
     402        1.8581         0.000       
     401        1.6918         0.000       
     400        1.6768         0.000       
     399        1.5926         0.000       
     398        1.5421         0.000       
     397        1.5157         0.000       
     396        1.5134         0.000       
     395        1.4271         0.000       
     394        1.4145         0.000       
     393        1.3499         0.000       
     392        1.3154         0.000       
     391        1.1247         0.000       
     390        1.1183         0.000       
     389        1.0783         0.000       
     388        1.0699         0.000       
     387        0.9568         0.000       
     386        0.9491         0.000       
     385       -0.1605         0.000       
     384       -0.1610         0.000       
     383       -0.1924         0.000       
     382       -0.1936         0.000       
     381       -0.3175         0.000       
     380       -0.3179         0.000       
     379       -0.3760         0.000       
     378       -0.3762         0.000       
     377       -0.4815         0.000       
     376       -0.4826         0.000       
     375       -0.6130         0.000       
     374       -0.6138         0.000       
     373       -0.6529         0.000       
     372       -0.6533         0.000 < LUMO
     371       -3.7331         1.000 < HOMO
     370       -5.2643         1.000       
     369       -5.2678         1.000       
     368       -5.2941         1.000       
     367       -5.2948         1.000       
     366       -5.3876         1.000       
     365       -5.3889         1.000       
     364       -5.4576         1.000       
     363       -5.4590         1.000       
     362       -5.6846         1.000       
     361       -5.6847         1.000       
     360       -5.7528         1.000       
     359       -5.7545         1.000       
     358       -6.2462         1.000       
     357       -6.2472         1.000       
     356       -6.3217         1.000       
     355       -6.3218         1.000       
     354       -6.3671         1.000       
     353       -6.3690         1.000       
     352       -6.3883         1.000       
     351       -6.3895         1.000       
     350       -6.4608         1.000       
     349       -6.4612         1.000       
     348       -6.5459         1.000       
     347       -6.5479         1.000       
     346       -6.5629         1.000       
     345       -6.5630         1.000       
     344       -6.6265         1.000       
     343       -6.6290         1.000       
     342       -6.6478         1.000       
     341       -6.6500         1.000       
     340       -6.7269         1.000       
     339       -6.7317         1.000       
     338       -6.7862         1.000       
     337       -6.7869         1.000       
     336       -6.8662         1.000       
     335       -6.8667         1.000       
     334       -6.8882         1.000       
     333       -6.8895         1.000       
     332       -6.9023         1.000       
     331       -6.9046         1.000       
     330       -6.9331         1.000       
     329       -6.9334         1.000       
     328       -6.9497         1.000       
     327       -6.9512         1.000       
     326       -7.0015         1.000       
     325       -7.0031         1.000       
     324       -7.1159         1.000       
     323       -7.1164         1.000       
     322       -7.2047         1.000       
     321       -7.2053         1.000       
     320       -7.2265         1.000       
     319       -7.2293         1.000       
     318       -7.2753         1.000       
     317       -7.2763         1.000       
     316       -7.3667         1.000       
     315       -7.3721         1.000       
     314       -7.4708         1.000       
     313       -7.4714         1.000       
     312       -7.7255         1.000       
     311       -7.7260         1.000       
     310       -7.8920         1.000       
     309       -7.8947         1.000       
     308       -8.0031         1.000       
     307       -8.0032         1.000       
     306       -8.0617         1.000       
     305       -8.0670         1.000       
     304       -8.3671         1.000       
     303       -8.3680         1.000       
     302       -8.5349         1.000       
     301       -8.5367         1.000       
     300       -8.6345         1.000       
     299       -8.6351         1.000       
     298       -8.8388         1.000       
     297       -8.8416         1.000       
     296       -9.0923         1.000       
     295       -9.0924         1.000       
     294       -9.1503         1.000       
     293       -9.1529         1.000       
     292      -10.2213         1.000       
     291      -10.2215         1.000       
     290      -10.5098         1.000       
     289      -10.5101         1.000       
     288      -10.7403         1.000       
     287      -10.7433         1.000       
     286      -10.9675         1.000       
     285      -10.9747         1.000       
     284      -11.1618         1.000       
     283      -11.1626         1.000       
     282      -11.2256         1.000       
     281      -11.2289         1.000       
     280      -12.2409         1.000       
     279      -12.2412         1.000       
     278      -12.2976         1.000       
     277      -12.2976         1.000       
     276      -12.3150         1.000       
     275      -12.3164         1.000       
     274      -12.3344         1.000       
     273      -12.3344         1.000       
     272      -12.5566         1.000       
     271      -12.5566         1.000       
     270      -12.6377         1.000       
     269      -12.6382         1.000       
     268      -12.7307         1.000       
     267      -12.7314         1.000       
     266      -12.7363         1.000       
     265      -12.7366         1.000       
     264      -12.8167         1.000       
     263      -12.8168         1.000       
     262      -12.8399         1.000       
     261      -12.8402         1.000       
     260      -12.9891         1.000       
     259      -12.9894         1.000       
     258      -13.0214         1.000       
     257      -13.0214         1.000       
     256      -13.1459         1.000       
     255      -13.1472         1.000       
     254      -13.2322         1.000       
     253      -13.2323         1.000       
     252      -13.2441         1.000       
     251      -13.2443         1.000       
     250      -13.3444         1.000       
     249      -13.3448         1.000       
     248      -13.5013         1.000       
     247      -13.5017         1.000       
     246      -13.5688         1.000       
     245      -13.5688         1.000       
     244      -13.8329         1.000       
     243      -13.8334         1.000       
     242      -14.1419         1.000       
     241      -14.1422         1.000       
     240      -14.2529         1.000       
     239      -14.2529         1.000       
     238      -14.4818         1.000       
     237      -14.4823         1.000       
     236      -14.5408         1.000       
     235      -14.5408         1.000       
     234      -14.6679         1.000       
     233      -14.6685         1.000       
     232      -14.8835         1.000       
     231      -14.8836         1.000       
     230      -14.9017         1.000       
     229      -14.9070         1.000       
     228      -14.9533         1.000       
     227      -14.9534         1.000       
     226      -14.9802         1.000       
     225      -14.9817         1.000       
     224      -15.2091         1.000       
     223      -15.2091         1.000       
     222      -15.3726         1.000       
     221      -15.3751         1.000       
     220      -18.6714         1.000       
     219      -18.7420         1.000       
     218      -20.2077         1.000       
     217      -20.5685         1.000       
     216      -20.6872         1.000       
     215      -20.7436         1.000       
     214      -21.4802         1.000       
     213      -21.4809         1.000       
     212      -22.9177         1.000       
     211      -23.0481         1.000       
     210      -23.4213         1.000       
     209      -23.4368         1.000       
     208      -26.1784         1.000       
     207      -26.1786         1.000       
     206      -26.4924         1.000       
     205      -26.4963         1.000       
     204      -26.5361         1.000       
     203      -26.5379         1.000       
     202      -26.5451         1.000       
     201      -26.5453         1.000       
     200      -26.5967         1.000       
     199      -26.5968         1.000       
     198      -26.7754         1.000       
     197      -26.7754         1.000       
     196      -26.8672         1.000       
     195      -26.8694         1.000       
     194      -26.9915         1.000       
     193      -26.9919         1.000       
     192      -27.0871         1.000       
     191      -27.0873         1.000       
     190      -27.1147         1.000       
     189      -27.1160         1.000       
     188      -27.1737         1.000       
     187      -27.1738         1.000       
     186      -27.2321         1.000       
     185      -27.2321         1.000       
     184      -27.4402         1.000       
     183      -27.4402         1.000       
     182      -27.4878         1.000       
     181      -27.4881         1.000       
     180      -27.6375         1.000       
     179      -27.6376         1.000       
     178      -27.7605         1.000       
     177      -27.7614         1.000       
     176      -28.0118         1.000       
     175      -28.0120         1.000       
     174      -28.2102         1.000       
     173      -28.2103         1.000       
     172      -28.2391         1.000       
     171      -28.2395         1.000       
     170      -32.8262         1.000       
     169      -32.8267         1.000       
     168      -32.9031         1.000       
     167      -32.9035         1.000       
     166      -32.9035         1.000       
     165      -32.9040         1.000       
     164      -32.9548         1.000       
     163      -32.9548         1.000       
     162      -33.2118         1.000       
     161      -33.2118         1.000       
     160      -33.3000         1.000       
     159      -33.3006         1.000       
     158      -39.2016         1.000       
     157      -39.7341         1.000       
     156      -41.1752         1.000       
     155      -41.1761         1.000       
     154     -108.6283         1.000       
     153     -108.7764         1.000       
     152     -109.0562         1.000       
     151     -109.3514         1.000       
     150     -109.5074         1.000       
     149     -109.6279         1.000       
     148     -112.1562         1.000       
     147     -112.5803         1.000       
     146     -112.9843         1.000       
     145     -113.1730         1.000       
     144     -113.1739         1.000       
     143     -113.2429         1.000       
     142     -113.2436         1.000       
     141     -113.3354         1.000       
     140     -113.3472         1.000       
     139     -113.3478         1.000       
     138     -116.5407         1.000       
     137     -116.5412         1.000       
     136     -116.6731         1.000       
     135     -116.6734         1.000       
     134     -208.3673         1.000       
     133     -208.6214         1.000       
     132     -208.9238         1.000       
     131     -209.2066         1.000       
     130     -213.0085         1.000       
     129     -213.0093         1.000       
     128     -213.2005         1.000       
     127     -213.2011         1.000       
     126     -227.7140         1.000       
     125     -228.0641         1.000       
     124     -232.2308         1.000       
     123     -232.2310         1.000       
     122     -285.3246         1.000       
     121     -286.1664         1.000       
     120     -290.2488         1.000       
     119     -290.2497         1.000       
     118     -396.5273         1.000       
     117     -396.5280         1.000       
     116     -396.5471         1.000       
     115     -396.5471         1.000       
     114     -396.5839         1.000       
     113     -396.5840         1.000       
     112     -396.5945         1.000       
     111     -396.5945         1.000       
     110     -396.8060         1.000       
     109     -396.8060         1.000       
     108     -396.9675         1.000       
     107     -396.9677         1.000       
     106     -519.9888         1.000       
     105     -519.9920         1.000       
     104     -521.0209         1.000       
     103     -521.0212         1.000       
     102     -521.1008         1.000       
     101     -521.1008         1.000       
     100     -521.1172         1.000       
      99     -521.1180         1.000       
      98     -521.1433         1.000       
      97     -521.1460         1.000       
      96     -521.1461         1.000       
      95     -521.1461         1.000       
      94     -521.1592         1.000       
      93     -521.1592         1.000       
      92     -521.1615         1.000       
      91     -521.1631         1.000       
      90     -521.2255         1.000       
      89     -521.2279         1.000       
      88     -521.2662         1.000       
      87     -521.2662         1.000       
      86     -521.3306         1.000       
      85     -521.3324         1.000       
      84     -521.3375         1.000       
      83     -521.3375         1.000       
      82     -521.3610         1.000       
      81     -521.3610         1.000       
      80     -521.4076         1.000       
      79     -521.4076         1.000       
      78     -521.4738         1.000       
      77     -521.4738         1.000       
      76     -521.5099         1.000       
      75     -521.5099         1.000       
      74     -521.5207         1.000       
      73     -521.5211         1.000       
      72     -521.5779         1.000       
      71     -521.5797         1.000       
      70     -521.6556         1.000       
      69     -521.6575         1.000       
      68     -521.7635         1.000       
      67     -521.7635         1.000       
      66     -522.2868         1.000       
      65     -522.2868         1.000       
      64     -522.4607         1.000       
      63     -522.4623         1.000       
      62     -522.6920         1.000       
      61     -522.6933         1.000       
      60     -522.8690         1.000       
      59     -522.8690         1.000       
      58     -522.8954         1.000       
      57     -522.8968         1.000       
      56     -870.5941         1.000       
      55     -870.6503         1.000       
      54     -870.7334         1.000       
      53     -870.8014         1.000       
      52     -870.8281         1.000       
      51     -870.8574         1.000       
      50     -875.5884         1.000       
      49     -875.5887         1.000       
      48     -875.6675         1.000       
      47     -875.6676         1.000       
      46     -875.7738         1.000       
      45     -875.7740         1.000       
      44     -889.2960         1.000       
      43     -889.3974         1.000       
      42     -889.4995         1.000       
      41     -889.5946         1.000       
      40     -894.2554         1.000       
      39     -894.2555         1.000       
      38     -894.3919         1.000       
      37     -894.3920         1.000       
      36    -1160.3095         1.000       
      35    -1160.3931         1.000       
      34    -1160.4965         1.000       
      33    -1160.5871         1.000       
      32    -1165.3733         1.000       
      31    -1165.3735         1.000       
      30    -1165.5547         1.000       
      29    -1165.5549         1.000       
      28    -1248.6655         1.000       
      27    -1248.7653         1.000       
      26    -1253.6855         1.000       
      25    -1253.6855         1.000       
      24    -1402.4446         1.000       
      23    -1402.7185         1.000       
      22    -1407.6056         1.000       
      21    -1407.6059         1.000       
      20    -5665.8980         1.000       
      19    -5665.8988         1.000       
      18    -5665.9012         1.000       
      17    -5665.9028         1.000       
      16    -5670.0206         1.000       
      15    -5670.0206         1.000       
      14    -5670.0452         1.000       
      13    -5670.0452         1.000       
      12    -6112.2099         1.000       
      11    -6112.2108         1.000       
      10    -6116.3081         1.000       
       9    -6116.3081         1.000       
       8    -6477.9701         1.000       
       7    -6477.9727         1.000       
       6    -6482.1692         1.000       
       5    -6482.1692         1.000       
       4   -40316.2374         1.000       
       3   -40316.2375         1.000       
       2   -40319.9549         1.000       
       1   -40319.9549         1.000       
Attempting to store the results of the failed calculation ...

AMS application finished. Exiting.
NORMAL TERMINATION
     Total cpu time:  110264.94
  Total system time:    3082.61
 Total elapsed time:  113591.32
