

 Parallel Execution: Process Information
 ==============================================================================
 Rank   Node Name                              NodeID   MyNodeRank  NodeMaster
    0   u-0-12.local                              0          0          0
    1   u-0-12.local                              0          1         -1
    2   u-0-12.local                              0          2         -1
    3   u-0-12.local                              0          3         -1
    4   u-0-12.local                              1          0          1
    5   u-0-12.local                              1          1         -1
    6   u-0-12.local                              1          2         -1
    7   u-0-12.local                              1          3         -1
    8   u-0-12.local                              2          0          2
    9   u-0-12.local                              2          1         -1
   10   u-0-12.local                              2          2         -1
   11   u-0-12.local                              2          3         -1
   12   u-0-12.local                              3          0          3
   13   u-0-12.local                              3          1         -1
   14   u-0-12.local                              3          2         -1
   15   u-0-12.local                              3          3         -1
 ==============================================================================


May use up to 31200MB of RAM as shared memory on node 0
May use up to 31250MB of RAM as shared memory on node 1
May use up to 31250MB of RAM as shared memory on node 2
May use up to 31250MB of RAM as shared memory on node 3

 *******************************************************************************
 *                                                                             *
 *  --------------------------------                                           *
 *   Amsterdam Modeling Suite (AMS)              2023.101                      *
 *  --------------------------------                                           *
 *                                               r111868 2023-03-31            *
 *                                                                             *
 *                                                                             *
 *                              =================                              *
 *                              |               |                              *
 *                              |     A M S     |                              *
 *                              |               |                              *
 *                              =================                              *
 *                                                                             *
 *                                                                             *
 *   Online information and documentation:  https://www.scm.com/support/       *
 *   E-mail:  support@scm.com   info@scm.com                                   *
 *                                                                             *
 *   Scientific publications using AMS results must be properly referenced     *
 *   See the User Manuals (or the web site) for recommended citations          *
 *   The terms and conditions of the End User License Agreement apply to       *
 *   the use of AMS, https://www.scm.com/license-terms/                        *
 *                                                                             *
 **********************  x86_64_linux_intel / intelmpi  ************************
 
 Licensed to: Dr. Val?rie Vallet / Laboratoire PhLAM UMR 8523 / Villeneuve d'Ascq Cedex / FRANCE 2024-02-19 16:59:55
 SCM User ID: u10325
  
 AMS 2023.101  RunTime: Mar27-2024 16:30:26  ShM Nodes: 4  Procs: 16

 AMS jobname: CeIII_3no3_3h2o.x2c-so.pbe0
 AMS jobid  : 253445775

 Start   directory: /home/vallet/ANL/CeIV-dimer/CeIII-monomer/geom-pbe0-cosmo/ams-sp-pbe0-x2c/
 Results directory: /home/vallet/ANL/CeIV-dimer/CeIII-monomer/geom-pbe0-cosmo/ams-sp-pbe0-x2c/CeIII_3no3_3h2o.x2c-so.pbe0.results/
 Scratch directory: /state/partition2/vallet/1012531.phlam-s-sakura/amstmp_CeIII_3no3_3h2o.x2c-so.pbe0_kid0.253445775/


 Communication costs MPI_COMM_WORLD:      8.430 usec per message,   0.0052 usec per 8-byte item
 Communication costs for intra-node:      1.915 usec per message,   0.0036 usec per 8-byte item

 RNG seed: -1512025582 -519812651 -1523814673 -1654431522 -1224171284 964882610 -1130452086 763974376



                     *************************************************************************
                     *  ADF 2023.101  RunTime: Mar27-2024 16:30:26  ShM Nodes: 4  Procs: 16  *
                     *************************************************************************
  

       ****************************
       * SINGLE POINT CALCULATION *
       ****************************
 
--------
Geometry
--------
Formula: H6CeN3O12
Atoms
  Index Symbol   x (angstrom)   y (angstrom)   z (angstrom)
      1      O     0.09223300     0.24024100    -0.28891500
      2     Ce    -2.19532500    -0.01266400     0.02908100
      3      O    -2.19555500    -1.00500800     2.32749900
      4      O    -1.86995900     1.71351900     1.86995600
      5      N    -2.00904100     2.73715300     1.14484800
      6      O    -2.24594600     2.52719200    -0.07656500
      7      O    -4.52743100     0.72314200     0.78617800
      8      N    -5.13084100    -0.33679800     0.46384000
      9      O    -4.43392400    -1.25287300    -0.05454300
     10      O    -1.66028900    -2.49572900     0.05787500
     11      N    -1.74910200    -2.68412700    -1.18857000
     12      O    -1.55584500    -3.76776000    -1.68152400
     13      O    -2.05238400    -1.67698400    -1.88485800
     14      O    -3.11101000     0.87678100    -2.12596600
     15      O    -1.92135600     3.85332200     1.59489700
     16      O    -6.31836800    -0.47062800     0.64466700
     17      H     0.98172300     0.46588300    -0.59968800
     18      H    -3.36425600     1.78784300    -2.30627000
     19      H    -3.29157400     0.36943600    -2.92373800
     20      H    -2.15317500    -0.51257000     3.15391900
     21      H    -2.09606200    -1.93745900     2.54745100
     22      H     0.05178000    -0.32326500     0.49434400
 
Total System Charge             0.00000
Bonding info available!
 
 
----------------
ADF Engine Input
----------------
 
 Basis
 Type TZ2P
 Core None
 End
 XC
 Hybrid PBE0
 End
 Relativity
 Level Spin-Orbit
 Formalism X2C
 SpinOrbitMagnetization NonCollinear
 End
 Unrestricted Yes
 

 Title: *** (NO TITLE) ***

 *** adf ***



 ===========================
 A T T A C H E D   F I L E S
 ===========================
  
 Restart
 /home/vallet/ANL/CeIV-dimer/CeIII-monomer/geom-pbe0-cosmo/ams-sp-pbe0-x2c/dep-a
 df.rkf*** adf ***



 ===============================
 M O D E L   P A R A M E T E R S
 ===============================
  
 DENSITY FUNCTIONAL POTENTIAL (scf)
    Hybrid:                            PBE0                                    == Not Default ==

 SPIN  (restricted / unrestr.)
    Molecule:                          UNrestricted                            == Not Default ==
    Fragments:                         Restricted                               

 OTHER ASPECTS
    Relativistic Corrections:          Spin-Orbit (X2C,MAPA)                   == Not Default ==
    Unrestricted Option:               Noncollinear approximation               *** SPECIAL ***

    Nuclear Charge Density Model:      Point Charge Nuclei                      
    Core Treatment:                    Frozen Orbital(s)                        

    Hyperfine or Zeeman Interaction:   ---                                      


 Fragment File(s)
 ----------------
 O:
         file : /home/vallet/ANL/CeIV-dimer/CeIII-monomer/geom-pbe0-cosmo/ams-sp-pbe0-x2c/CeIII_3no3_3h2o.x2c-so.pbe0.results/t21.5810AA2E.O
         jobid: 0
         title: Oxygen (TZ2P)
 Ce:
         file : /home/vallet/ANL/CeIV-dimer/CeIII-monomer/geom-pbe0-cosmo/ams-sp-pbe0-x2c/CeIII_3no3_3h2o.x2c-so.pbe0.results/t21.190B7557.Ce
         jobid: 0
         title: Cerium (TZP, all electron)
 N:
         file : /home/vallet/ANL/CeIV-dimer/CeIII-monomer/geom-pbe0-cosmo/ams-sp-pbe0-x2c/CeIII_3no3_3h2o.x2c-so.pbe0.results/t21.131ABD2B.N
         jobid: 0
         title: Nitrogen (TZ2P)
 H:
         file : /home/vallet/ANL/CeIV-dimer/CeIII-monomer/geom-pbe0-cosmo/ams-sp-pbe0-x2c/CeIII_3no3_3h2o.x2c-so.pbe0.results/t21.62BC803D.H
         jobid: 0
         title: Hydrogen (TZ2P)



 ===============
 G E O M E T R Y  ***  3D  Molecule  ***
 ===============
  

 ATOMS
 =====                            X Y Z                    CHARGE
                                (Angstrom)             Nucl     +Core       At.Mass
                       --------------------------    ----------------       -------
    1  O               0.0922    0.2402   -0.2889      8.00      8.00       15.9949
    2  Ce             -2.1953   -0.0127    0.0291     58.00     58.00      139.9054
    3  O              -2.1956   -1.0050    2.3275      8.00      8.00       15.9949
    4  O              -1.8700    1.7135    1.8700      8.00      8.00       15.9949
    5  N              -2.0090    2.7372    1.1448      7.00      7.00       14.0031
    6  O              -2.2459    2.5272   -0.0766      8.00      8.00       15.9949
    7  O              -4.5274    0.7231    0.7862      8.00      8.00       15.9949
    8  N              -5.1308   -0.3368    0.4638      7.00      7.00       14.0031
    9  O              -4.4339   -1.2529   -0.0545      8.00      8.00       15.9949
   10  O              -1.6603   -2.4957    0.0579      8.00      8.00       15.9949
   11  N              -1.7491   -2.6841   -1.1886      7.00      7.00       14.0031
   12  O              -1.5558   -3.7678   -1.6815      8.00      8.00       15.9949
   13  O              -2.0524   -1.6770   -1.8849      8.00      8.00       15.9949
   14  O              -3.1110    0.8768   -2.1260      8.00      8.00       15.9949
   15  O              -1.9214    3.8533    1.5949      8.00      8.00       15.9949
   16  O              -6.3184   -0.4706    0.6447      8.00      8.00       15.9949
   17  H               0.9817    0.4659   -0.5997      1.00      1.00        1.0078
   18  H              -3.3643    1.7878   -2.3063      1.00      1.00        1.0078
   19  H              -3.2916    0.3694   -2.9237      1.00      1.00        1.0078
   20  H              -2.1532   -0.5126    3.1539      1.00      1.00        1.0078
   21  H              -2.0961   -1.9375    2.5475      1.00      1.00        1.0078
   22  H               0.0518   -0.3233    0.4943      1.00      1.00        1.0078


 FRAGMENTS
 =========                                     Atoms in this Fragment     Cart. coord.s (Angstrom)
                                               -------------------------------------------------------
    1  O                                                 1  O            0.0922    0.2402   -0.2889
    2  O                                                 3  O           -2.1956   -1.0050    2.3275
    3  O                                                 4  O           -1.8700    1.7135    1.8700
    4  O                                                 6  O           -2.2459    2.5272   -0.0766
    5  O                                                 7  O           -4.5274    0.7231    0.7862
    6  O                                                 9  O           -4.4339   -1.2529   -0.0545
    7  O                                                10  O           -1.6603   -2.4957    0.0579
    8  O                                                12  O           -1.5558   -3.7678   -1.6815
    9  O                                                13  O           -2.0524   -1.6770   -1.8849
   10  O                                                14  O           -3.1110    0.8768   -2.1260
   11  O                                                15  O           -1.9214    3.8533    1.5949
   12  O                                                16  O           -6.3184   -0.4706    0.6447
   13  Ce                                                2  Ce          -2.1953   -0.0127    0.0291
   14  N                                                 5  N           -2.0090    2.7372    1.1448
   15  N                                                 8  N           -5.1308   -0.3368    0.4638
   16  N                                                11  N           -1.7491   -2.6841   -1.1886
   17  H                                                17  H            0.9817    0.4659   -0.5997
   18  H                                                18  H           -3.3643    1.7878   -2.3063
   19  H                                                19  H           -3.2916    0.3694   -2.9237
   20  H                                                20  H           -2.1532   -0.5126    3.1539
   21  H                                                21  H           -2.0961   -1.9375    2.5475
   22  H                                                22  H            0.0518   -0.3233    0.4943



 =====================================
 S Y M M E T R Y ,   E L E C T R O N S
 =====================================
  
 Symmetry: NOSYM

 Double Group Irreducible Representations (spinor symmetry)
 -----------------------------------------------------------
 A1/2

 Symmetry is NOT used when fitting density


 Configuration of Valence Electrons
 ==================================
 ( determined in the SCF procedure )

 Total:   181

 Net Charge: 0 (Nuclei minus Electrons)

 Aufbau principle for MO occupations will be applied through SCF cycle no.     150
 Thereafter, the program will assign electrons to MOs that are spatially
 similar to the occupied MOs in a "reference" cycle ("KeepOrbitals").
 The reference cycle is always the PREVIOUS cycle: it will evolve with
 the SCF procedure.
1
 ***************************************************************************************************



                                      ****************************************
                                      *  B U I L D : (Fragments, Functions)  *
                                      ****************************************
  



 =======
 S F O s  ***  (Symmetrized Fragment Orbitals)  ***
 =======
  
 SFOs are linear combinations of (valence) Fragment Orbitals (FOs), such that the SFOs transform as the
 irreducible representations of the (molecular) symmetry group. Each SFO is therefore characterized by
 an irrep of the molecule and by a few (or only one) generating FOs.
 The SFOs constitute a symmetry-adapted basis for the Fock matrix. The MO eigenvector coefficients in
 this basis provide a direct interpretation of the MOs in terms of Frontier Orbital Theory.

 The SFOs are combined with auxiliary Core Functions (CFs) to ensure orthogonalization on the (frozen)
 Core Orbitals (COs). The Core-orthogonalized SFOs (CSFOs) constitute the true Fock basis.

 The FOs, and hence also the (C)SFOs are combinations of the elementary basis functions (BAS). The basis
 functions that participate in the description of the SFOs depend on the irrep. The indices of the
 involved functions are printed below for each irrep.
 (The complete list of primitive basis functions is printed in another section)

 Total nr. of (C)SFOs (summation over all irreps) :   556

 NOTE: a (C)SFO that is defined as a combination of more than one FO is usually NOT normalized.

 NOTE: the (C)SFOs are single group symmetry adapted orbitals.



                                       === A ===
 Nr. of SFOs :  556
 Cartesian basis functions that participate in this irrep (total number =   638) :
      1     2     3     4     5     6     9    12     7    10
     13     8    11    14    15    16    17    18    19    20
     21    22    23    24    25    26    27    28    29    30
     31    32    33    34    35    36    39    42    37    40
     43    38    41    44    45    46    47    48    49    50
     51    52    53    54    55    56    57    58    59    60
     61    62    63    64    65    66    69    72    67    70
     73    68    71    74    75    76    77    78    79    80
     81    82    83    84    85    86    87    88    89    90
     91    92    93    94    95    96    99   102    97   100
    103    98   101   104   105   106   107   108   109   110
    111   112   113   114   115   116   117   118   119   120
    121   122   123   124   125   126   129   132   127   130
    133   128   131   134   135   136   137   138   139   140
    141   142   143   144   145   146   147   148   149   150
    151   152   153   154   155   156   159   162   157   160
    163   158   161   164   165   166   167   168   169   170
    171   172   173   174   175   176   177   178   179   180
    181   182   183   184   185   186   189   192   187   190
    193   188   191   194   195   196   197   198   199   200
    201   202   203   204   205   206   207   208   209   210
    211   212   213   214   215   216   219   222   217   220
    223   218   221   224   225   226   227   228   229   230
    231   232   233   234   235   236   237   238   239   240
    241   242   243   244   245   246   249   252   247   250
    253   248   251   254   255   256   257   258   259   260
    261   262   263   264   265   266   267   268   269   270
    271   272   273   274   275   276   279   282   277   280
    283   278   281   284   285   286   287   288   289   290
    291   292   293   294   295   296   297   298   299   300
    301   302   303   304   305   306   309   312   307   310
    313   308   311   314   315   316   317   318   319   320
    321   322   323   324   325   326   327   328   329   330
    331   332   333   334   335   336   339   342   337   340
    343   338   341   344   345   346   347   348   349   350
    351   352   353   354   355   356   357   358   359   360
    361   362   363   364   365   366   367   368   369   370
    371   372   373   374   375   378   381   384   387   390
    393   396   399   474   376   379   382   385   388   391
    394   397   400   475   377   380   383   386   389   392
    395   398   401   476   402   408   414   420   426   432
    438   403   409   415   421   427   433   439   404   410
    416   422   428   434   440   405   411   417   423   429
    435   441   406   412   418   424   430   436   442   407
    413   419   425   431   437   443   444   454   464   445
    455   465   446   456   466   447   457   467   448   458
    468   449   459   469   450   460   470   451   461   471
    452   462   472   453   463   473   477   478   479   480
    481   482   485   488   483   486   489   484   487   490
    491   492   493   494   495   496   497   498   499   500
    501   502   503   504   505   506   507   508   509   510
    511   512   515   518   513   516   519   514   517   520
    521   522   523   524   525   526   527   528   529   530
    531   532   533   534   535   536   537   538   539   540
    541   542   545   548   543   546   549   544   547   550
    551   552   553   554   555   556   557   558   559   560
    561   562   563   564   565   566   567   568   569   570
    571   572   573   574   575   576   577   578   579   580
    581   582   583   584   585   586   587   588   589   590
    591   592   593   594   595   596   597   598   599   600
    601   602   603   604   605   606   607   608   609   610
    611   612   613   614   615   616   617   618   619   620
    621   622   623   624   625   626   627   628   629   630
    631   632   633   634   635   636   637   638

    SFO  (index         Fragment          Generating    Expansion in Fragment Orbitals
  indx  incl.CFs)   Occup   Orb.Energy   FragmentType  Coeff.   Orbital     on Fragment
 --------------------------------------------------------------------------------------
     1       1      2.000     -19.396 au  O             1.00      1 S               1
                        (    -527.798 eV)
     2       2      2.000      -0.999 au  O             1.00      2 S               1
                        (     -27.197 eV)
     3       3       --         0.856 au  O             1.00      3 S               1
                        (      23.286 eV)
     4       4       --        13.669 au  O             1.00      4 S               1
                        (     371.959 eV)
     5       5       --       122.371 au  O             1.00      5 S               1
                        (    3329.873 eV)
     6       6      1.333      -0.366 au  O             1.00      1 P:x             1
                        (      -9.955 eV)
     7       7       --         0.397 au  O             1.00      2 P:x             1
                        (      10.811 eV)
     8       8       --         3.979 au  O             1.00      3 P:x             1
                        (     108.279 eV)
     9       9      1.333      -0.366 au  O             1.00      1 P:y             1
                        (      -9.955 eV)
    10      10       --         0.397 au  O             1.00      2 P:y             1
                        (      10.811 eV)
    11      11       --         3.979 au  O             1.00      3 P:y             1
                        (     108.279 eV)
    12      12      1.333      -0.366 au  O             1.00      1 P:z             1
                        (      -9.955 eV)
    13      13       --         0.397 au  O             1.00      2 P:z             1
                        (      10.811 eV)
    14      14       --         3.979 au  O             1.00      3 P:z             1
                        (     108.279 eV)
    15      15       --         1.128 au  O             1.00      1 D:z2            1
                        (      30.706 eV)
    16      16       --         1.128 au  O             1.00      1 D:x2-y2         1
                        (      30.706 eV)
    17      17       --         1.128 au  O             1.00      1 D:xy            1
                        (      30.706 eV)
    18      18       --         1.128 au  O             1.00      1 D:xz            1
                        (      30.706 eV)
    19      19       --         1.128 au  O             1.00      1 D:yz            1
                        (      30.706 eV)
    20      20       --         3.446 au  O             1.00      1 F:z3            1
                        (      93.772 eV)
    21      21       --         3.446 au  O             1.00      1 F:z             1
                        (      93.772 eV)
    22      22       --         3.446 au  O             1.00      1 F:xyz           1
                        (      93.772 eV)
    23      23       --         3.446 au  O             1.00      1 F:z2x           1
                        (      93.772 eV)
    24      24       --         3.446 au  O             1.00      1 F:z2y           1
                        (      93.772 eV)
    25      25       --         3.446 au  O             1.00      1 F:x             1
                        (      93.772 eV)
    26      26       --         3.446 au  O             1.00      1 F:y             1
                        (      93.772 eV)
    27      27      2.000     -19.396 au  O             1.00      1 S               2
                        (    -527.798 eV)
    28      28      2.000      -0.999 au  O             1.00      2 S               2
                        (     -27.197 eV)
    29      29       --         0.856 au  O             1.00      3 S               2
                        (      23.286 eV)
    30      30       --        13.669 au  O             1.00      4 S               2
                        (     371.959 eV)
    31      31       --       122.371 au  O             1.00      5 S               2
                        (    3329.873 eV)
    32      32      1.333      -0.366 au  O             1.00      1 P:x             2
                        (      -9.955 eV)
    33      33       --         0.397 au  O             1.00      2 P:x             2
                        (      10.811 eV)
    34      34       --         3.979 au  O             1.00      3 P:x             2
                        (     108.279 eV)
    35      35      1.333      -0.366 au  O             1.00      1 P:y             2
                        (      -9.955 eV)
    36      36       --         0.397 au  O             1.00      2 P:y             2
                        (      10.811 eV)
    37      37       --         3.979 au  O             1.00      3 P:y             2
                        (     108.279 eV)
    38      38      1.333      -0.366 au  O             1.00      1 P:z             2
                        (      -9.955 eV)
    39      39       --         0.397 au  O             1.00      2 P:z             2
                        (      10.811 eV)
    40      40       --         3.979 au  O             1.00      3 P:z             2
                        (     108.279 eV)
    41      41       --         1.128 au  O             1.00      1 D:z2            2
                        (      30.706 eV)
    42      42       --         1.128 au  O             1.00      1 D:x2-y2         2
                        (      30.706 eV)
    43      43       --         1.128 au  O             1.00      1 D:xy            2
                        (      30.706 eV)
    44      44       --         1.128 au  O             1.00      1 D:xz            2
                        (      30.706 eV)
    45      45       --         1.128 au  O             1.00      1 D:yz            2
                        (      30.706 eV)
    46      46       --         3.446 au  O             1.00      1 F:z3            2
                        (      93.772 eV)
    47      47       --         3.446 au  O             1.00      1 F:z             2
                        (      93.772 eV)
    48      48       --         3.446 au  O             1.00      1 F:xyz           2
                        (      93.772 eV)
    49      49       --         3.446 au  O             1.00      1 F:z2x           2
                        (      93.772 eV)
    50      50       --         3.446 au  O             1.00      1 F:z2y           2
                        (      93.772 eV)
    51      51       --         3.446 au  O             1.00      1 F:x             2
                        (      93.772 eV)
    52      52       --         3.446 au  O             1.00      1 F:y             2
                        (      93.772 eV)
    53      53      2.000     -19.396 au  O             1.00      1 S               3
                        (    -527.798 eV)
    54      54      2.000      -0.999 au  O             1.00      2 S               3
                        (     -27.197 eV)
    55      55       --         0.856 au  O             1.00      3 S               3
                        (      23.286 eV)
    56      56       --        13.669 au  O             1.00      4 S               3
                        (     371.959 eV)
    57      57       --       122.371 au  O             1.00      5 S               3
                        (    3329.873 eV)
    58      58      1.333      -0.366 au  O             1.00      1 P:x             3
                        (      -9.955 eV)
    59      59       --         0.397 au  O             1.00      2 P:x             3
                        (      10.811 eV)
    60      60       --         3.979 au  O             1.00      3 P:x             3
                        (     108.279 eV)
    61      61      1.333      -0.366 au  O             1.00      1 P:y             3
                        (      -9.955 eV)
    62      62       --         0.397 au  O             1.00      2 P:y             3
                        (      10.811 eV)
    63      63       --         3.979 au  O             1.00      3 P:y             3
                        (     108.279 eV)
    64      64      1.333      -0.366 au  O             1.00      1 P:z             3
                        (      -9.955 eV)
    65      65       --         0.397 au  O             1.00      2 P:z             3
                        (      10.811 eV)
    66      66       --         3.979 au  O             1.00      3 P:z             3
                        (     108.279 eV)
    67      67       --         1.128 au  O             1.00      1 D:z2            3
                        (      30.706 eV)
    68      68       --         1.128 au  O             1.00      1 D:x2-y2         3
                        (      30.706 eV)
    69      69       --         1.128 au  O             1.00      1 D:xy            3
                        (      30.706 eV)
    70      70       --         1.128 au  O             1.00      1 D:xz            3
                        (      30.706 eV)
    71      71       --         1.128 au  O             1.00      1 D:yz            3
                        (      30.706 eV)
    72      72       --         3.446 au  O             1.00      1 F:z3            3
                        (      93.772 eV)
    73      73       --         3.446 au  O             1.00      1 F:z             3
                        (      93.772 eV)
    74      74       --         3.446 au  O             1.00      1 F:xyz           3
                        (      93.772 eV)
    75      75       --         3.446 au  O             1.00      1 F:z2x           3
                        (      93.772 eV)
    76      76       --         3.446 au  O             1.00      1 F:z2y           3
                        (      93.772 eV)
    77      77       --         3.446 au  O             1.00      1 F:x             3
                        (      93.772 eV)
    78      78       --         3.446 au  O             1.00      1 F:y             3
                        (      93.772 eV)
    79      79      2.000     -19.396 au  O             1.00      1 S               4
                        (    -527.798 eV)
    80      80      2.000      -0.999 au  O             1.00      2 S               4
                        (     -27.197 eV)
    81      81       --         0.856 au  O             1.00      3 S               4
                        (      23.286 eV)
    82      82       --        13.669 au  O             1.00      4 S               4
                        (     371.959 eV)
    83      83       --       122.371 au  O             1.00      5 S               4
                        (    3329.873 eV)
    84      84      1.333      -0.366 au  O             1.00      1 P:x             4
                        (      -9.955 eV)
    85      85       --         0.397 au  O             1.00      2 P:x             4
                        (      10.811 eV)
    86      86       --         3.979 au  O             1.00      3 P:x             4
                        (     108.279 eV)
    87      87      1.333      -0.366 au  O             1.00      1 P:y             4
                        (      -9.955 eV)
    88      88       --         0.397 au  O             1.00      2 P:y             4
                        (      10.811 eV)
    89      89       --         3.979 au  O             1.00      3 P:y             4
                        (     108.279 eV)
    90      90      1.333      -0.366 au  O             1.00      1 P:z             4
                        (      -9.955 eV)
    91      91       --         0.397 au  O             1.00      2 P:z             4
                        (      10.811 eV)
    92      92       --         3.979 au  O             1.00      3 P:z             4
                        (     108.279 eV)
    93      93       --         1.128 au  O             1.00      1 D:z2            4
                        (      30.706 eV)
    94      94       --         1.128 au  O             1.00      1 D:x2-y2         4
                        (      30.706 eV)
    95      95       --         1.128 au  O             1.00      1 D:xy            4
                        (      30.706 eV)
    96      96       --         1.128 au  O             1.00      1 D:xz            4
                        (      30.706 eV)
    97      97       --         1.128 au  O             1.00      1 D:yz            4
                        (      30.706 eV)
    98      98       --         3.446 au  O             1.00      1 F:z3            4
                        (      93.772 eV)
    99      99       --         3.446 au  O             1.00      1 F:z             4
                        (      93.772 eV)
   100     100       --         3.446 au  O             1.00      1 F:xyz           4
                        (      93.772 eV)
   101     101       --         3.446 au  O             1.00      1 F:z2x           4
                        (      93.772 eV)
   102     102       --         3.446 au  O             1.00      1 F:z2y           4
                        (      93.772 eV)
   103     103       --         3.446 au  O             1.00      1 F:x             4
                        (      93.772 eV)
   104     104       --         3.446 au  O             1.00      1 F:y             4
                        (      93.772 eV)
   105     105      2.000     -19.396 au  O             1.00      1 S               5
                        (    -527.798 eV)
   106     106      2.000      -0.999 au  O             1.00      2 S               5
                        (     -27.197 eV)
   107     107       --         0.856 au  O             1.00      3 S               5
                        (      23.286 eV)
   108     108       --        13.669 au  O             1.00      4 S               5
                        (     371.959 eV)
   109     109       --       122.371 au  O             1.00      5 S               5
                        (    3329.873 eV)
   110     110      1.333      -0.366 au  O             1.00      1 P:x             5
                        (      -9.955 eV)
   111     111       --         0.397 au  O             1.00      2 P:x             5
                        (      10.811 eV)
   112     112       --         3.979 au  O             1.00      3 P:x             5
                        (     108.279 eV)
   113     113      1.333      -0.366 au  O             1.00      1 P:y             5
                        (      -9.955 eV)
   114     114       --         0.397 au  O             1.00      2 P:y             5
                        (      10.811 eV)
   115     115       --         3.979 au  O             1.00      3 P:y             5
                        (     108.279 eV)
   116     116      1.333      -0.366 au  O             1.00      1 P:z             5
                        (      -9.955 eV)
   117     117       --         0.397 au  O             1.00      2 P:z             5
                        (      10.811 eV)
   118     118       --         3.979 au  O             1.00      3 P:z             5
                        (     108.279 eV)
   119     119       --         1.128 au  O             1.00      1 D:z2            5
                        (      30.706 eV)
   120     120       --         1.128 au  O             1.00      1 D:x2-y2         5
                        (      30.706 eV)
   121     121       --         1.128 au  O             1.00      1 D:xy            5
                        (      30.706 eV)
   122     122       --         1.128 au  O             1.00      1 D:xz            5
                        (      30.706 eV)
   123     123       --         1.128 au  O             1.00      1 D:yz            5
                        (      30.706 eV)
   124     124       --         3.446 au  O             1.00      1 F:z3            5
                        (      93.772 eV)
   125     125       --         3.446 au  O             1.00      1 F:z             5
                        (      93.772 eV)
   126     126       --         3.446 au  O             1.00      1 F:xyz           5
                        (      93.772 eV)
   127     127       --         3.446 au  O             1.00      1 F:z2x           5
                        (      93.772 eV)
   128     128       --         3.446 au  O             1.00      1 F:z2y           5
                        (      93.772 eV)
   129     129       --         3.446 au  O             1.00      1 F:x             5
                        (      93.772 eV)
   130     130       --         3.446 au  O             1.00      1 F:y             5
                        (      93.772 eV)
   131     131      2.000     -19.396 au  O             1.00      1 S               6
                        (    -527.798 eV)
   132     132      2.000      -0.999 au  O             1.00      2 S               6
                        (     -27.197 eV)
   133     133       --         0.856 au  O             1.00      3 S               6
                        (      23.286 eV)
   134     134       --        13.669 au  O             1.00      4 S               6
                        (     371.959 eV)
   135     135       --       122.371 au  O             1.00      5 S               6
                        (    3329.873 eV)
   136     136      1.333      -0.366 au  O             1.00      1 P:x             6
                        (      -9.955 eV)
   137     137       --         0.397 au  O             1.00      2 P:x             6
                        (      10.811 eV)
   138     138       --         3.979 au  O             1.00      3 P:x             6
                        (     108.279 eV)
   139     139      1.333      -0.366 au  O             1.00      1 P:y             6
                        (      -9.955 eV)
   140     140       --         0.397 au  O             1.00      2 P:y             6
                        (      10.811 eV)
   141     141       --         3.979 au  O             1.00      3 P:y             6
                        (     108.279 eV)
   142     142      1.333      -0.366 au  O             1.00      1 P:z             6
                        (      -9.955 eV)
   143     143       --         0.397 au  O             1.00      2 P:z             6
                        (      10.811 eV)
   144     144       --         3.979 au  O             1.00      3 P:z             6
                        (     108.279 eV)
   145     145       --         1.128 au  O             1.00      1 D:z2            6
                        (      30.706 eV)
   146     146       --         1.128 au  O             1.00      1 D:x2-y2         6
                        (      30.706 eV)
   147     147       --         1.128 au  O             1.00      1 D:xy            6
                        (      30.706 eV)
   148     148       --         1.128 au  O             1.00      1 D:xz            6
                        (      30.706 eV)
   149     149       --         1.128 au  O             1.00      1 D:yz            6
                        (      30.706 eV)
   150     150       --         3.446 au  O             1.00      1 F:z3            6
                        (      93.772 eV)
   151     151       --         3.446 au  O             1.00      1 F:z             6
                        (      93.772 eV)
   152     152       --         3.446 au  O             1.00      1 F:xyz           6
                        (      93.772 eV)
   153     153       --         3.446 au  O             1.00      1 F:z2x           6
                        (      93.772 eV)
   154     154       --         3.446 au  O             1.00      1 F:z2y           6
                        (      93.772 eV)
   155     155       --         3.446 au  O             1.00      1 F:x             6
                        (      93.772 eV)
   156     156       --         3.446 au  O             1.00      1 F:y             6
                        (      93.772 eV)
   157     157      2.000     -19.396 au  O             1.00      1 S               7
                        (    -527.798 eV)
   158     158      2.000      -0.999 au  O             1.00      2 S               7
                        (     -27.197 eV)
   159     159       --         0.856 au  O             1.00      3 S               7
                        (      23.286 eV)
   160     160       --        13.669 au  O             1.00      4 S               7
                        (     371.959 eV)
   161     161       --       122.371 au  O             1.00      5 S               7
                        (    3329.873 eV)
   162     162      1.333      -0.366 au  O             1.00      1 P:x             7
                        (      -9.955 eV)
   163     163       --         0.397 au  O             1.00      2 P:x             7
                        (      10.811 eV)
   164     164       --         3.979 au  O             1.00      3 P:x             7
                        (     108.279 eV)
   165     165      1.333      -0.366 au  O             1.00      1 P:y             7
                        (      -9.955 eV)
   166     166       --         0.397 au  O             1.00      2 P:y             7
                        (      10.811 eV)
   167     167       --         3.979 au  O             1.00      3 P:y             7
                        (     108.279 eV)
   168     168      1.333      -0.366 au  O             1.00      1 P:z             7
                        (      -9.955 eV)
   169     169       --         0.397 au  O             1.00      2 P:z             7
                        (      10.811 eV)
   170     170       --         3.979 au  O             1.00      3 P:z             7
                        (     108.279 eV)
   171     171       --         1.128 au  O             1.00      1 D:z2            7
                        (      30.706 eV)
   172     172       --         1.128 au  O             1.00      1 D:x2-y2         7
                        (      30.706 eV)
   173     173       --         1.128 au  O             1.00      1 D:xy            7
                        (      30.706 eV)
   174     174       --         1.128 au  O             1.00      1 D:xz            7
                        (      30.706 eV)
   175     175       --         1.128 au  O             1.00      1 D:yz            7
                        (      30.706 eV)
   176     176       --         3.446 au  O             1.00      1 F:z3            7
                        (      93.772 eV)
   177     177       --         3.446 au  O             1.00      1 F:z             7
                        (      93.772 eV)
   178     178       --         3.446 au  O             1.00      1 F:xyz           7
                        (      93.772 eV)
   179     179       --         3.446 au  O             1.00      1 F:z2x           7
                        (      93.772 eV)
   180     180       --         3.446 au  O             1.00      1 F:z2y           7
                        (      93.772 eV)
   181     181       --         3.446 au  O             1.00      1 F:x             7
                        (      93.772 eV)
   182     182       --         3.446 au  O             1.00      1 F:y             7
                        (      93.772 eV)
   183     183      2.000     -19.396 au  O             1.00      1 S               8
                        (    -527.798 eV)
   184     184      2.000      -0.999 au  O             1.00      2 S               8
                        (     -27.197 eV)
   185     185       --         0.856 au  O             1.00      3 S               8
                        (      23.286 eV)
   186     186       --        13.669 au  O             1.00      4 S               8
                        (     371.959 eV)
   187     187       --       122.371 au  O             1.00      5 S               8
                        (    3329.873 eV)
   188     188      1.333      -0.366 au  O             1.00      1 P:x             8
                        (      -9.955 eV)
   189     189       --         0.397 au  O             1.00      2 P:x             8
                        (      10.811 eV)
   190     190       --         3.979 au  O             1.00      3 P:x             8
                        (     108.279 eV)
   191     191      1.333      -0.366 au  O             1.00      1 P:y             8
                        (      -9.955 eV)
   192     192       --         0.397 au  O             1.00      2 P:y             8
                        (      10.811 eV)
   193     193       --         3.979 au  O             1.00      3 P:y             8
                        (     108.279 eV)
   194     194      1.333      -0.366 au  O             1.00      1 P:z             8
                        (      -9.955 eV)
   195     195       --         0.397 au  O             1.00      2 P:z             8
                        (      10.811 eV)
   196     196       --         3.979 au  O             1.00      3 P:z             8
                        (     108.279 eV)
   197     197       --         1.128 au  O             1.00      1 D:z2            8
                        (      30.706 eV)
   198     198       --         1.128 au  O             1.00      1 D:x2-y2         8
                        (      30.706 eV)
   199     199       --         1.128 au  O             1.00      1 D:xy            8
                        (      30.706 eV)
   200     200       --         1.128 au  O             1.00      1 D:xz            8
                        (      30.706 eV)
   201     201       --         1.128 au  O             1.00      1 D:yz            8
                        (      30.706 eV)
   202     202       --         3.446 au  O             1.00      1 F:z3            8
                        (      93.772 eV)
   203     203       --         3.446 au  O             1.00      1 F:z             8
                        (      93.772 eV)
   204     204       --         3.446 au  O             1.00      1 F:xyz           8
                        (      93.772 eV)
   205     205       --         3.446 au  O             1.00      1 F:z2x           8
                        (      93.772 eV)
   206     206       --         3.446 au  O             1.00      1 F:z2y           8
                        (      93.772 eV)
   207     207       --         3.446 au  O             1.00      1 F:x             8
                        (      93.772 eV)
   208     208       --         3.446 au  O             1.00      1 F:y             8
                        (      93.772 eV)
   209     209      2.000     -19.396 au  O             1.00      1 S               9
                        (    -527.798 eV)
   210     210      2.000      -0.999 au  O             1.00      2 S               9
                        (     -27.197 eV)
   211     211       --         0.856 au  O             1.00      3 S               9
                        (      23.286 eV)
   212     212       --        13.669 au  O             1.00      4 S               9
                        (     371.959 eV)
   213     213       --       122.371 au  O             1.00      5 S               9
                        (    3329.873 eV)
   214     214      1.333      -0.366 au  O             1.00      1 P:x             9
                        (      -9.955 eV)
   215     215       --         0.397 au  O             1.00      2 P:x             9
                        (      10.811 eV)
   216     216       --         3.979 au  O             1.00      3 P:x             9
                        (     108.279 eV)
   217     217      1.333      -0.366 au  O             1.00      1 P:y             9
                        (      -9.955 eV)
   218     218       --         0.397 au  O             1.00      2 P:y             9
                        (      10.811 eV)
   219     219       --         3.979 au  O             1.00      3 P:y             9
                        (     108.279 eV)
   220     220      1.333      -0.366 au  O             1.00      1 P:z             9
                        (      -9.955 eV)
   221     221       --         0.397 au  O             1.00      2 P:z             9
                        (      10.811 eV)
   222     222       --         3.979 au  O             1.00      3 P:z             9
                        (     108.279 eV)
   223     223       --         1.128 au  O             1.00      1 D:z2            9
                        (      30.706 eV)
   224     224       --         1.128 au  O             1.00      1 D:x2-y2         9
                        (      30.706 eV)
   225     225       --         1.128 au  O             1.00      1 D:xy            9
                        (      30.706 eV)
   226     226       --         1.128 au  O             1.00      1 D:xz            9
                        (      30.706 eV)
   227     227       --         1.128 au  O             1.00      1 D:yz            9
                        (      30.706 eV)
   228     228       --         3.446 au  O             1.00      1 F:z3            9
                        (      93.772 eV)
   229     229       --         3.446 au  O             1.00      1 F:z             9
                        (      93.772 eV)
   230     230       --         3.446 au  O             1.00      1 F:xyz           9
                        (      93.772 eV)
   231     231       --         3.446 au  O             1.00      1 F:z2x           9
                        (      93.772 eV)
   232     232       --         3.446 au  O             1.00      1 F:z2y           9
                        (      93.772 eV)
   233     233       --         3.446 au  O             1.00      1 F:x             9
                        (      93.772 eV)
   234     234       --         3.446 au  O             1.00      1 F:y             9
                        (      93.772 eV)
   235     235      2.000     -19.396 au  O             1.00      1 S              10
                        (    -527.798 eV)
   236     236      2.000      -0.999 au  O             1.00      2 S              10
                        (     -27.197 eV)
   237     237       --         0.856 au  O             1.00      3 S              10
                        (      23.286 eV)
   238     238       --        13.669 au  O             1.00      4 S              10
                        (     371.959 eV)
   239     239       --       122.371 au  O             1.00      5 S              10
                        (    3329.873 eV)
   240     240      1.333      -0.366 au  O             1.00      1 P:x            10
                        (      -9.955 eV)
   241     241       --         0.397 au  O             1.00      2 P:x            10
                        (      10.811 eV)
   242     242       --         3.979 au  O             1.00      3 P:x            10
                        (     108.279 eV)
   243     243      1.333      -0.366 au  O             1.00      1 P:y            10
                        (      -9.955 eV)
   244     244       --         0.397 au  O             1.00      2 P:y            10
                        (      10.811 eV)
   245     245       --         3.979 au  O             1.00      3 P:y            10
                        (     108.279 eV)
   246     246      1.333      -0.366 au  O             1.00      1 P:z            10
                        (      -9.955 eV)
   247     247       --         0.397 au  O             1.00      2 P:z            10
                        (      10.811 eV)
   248     248       --         3.979 au  O             1.00      3 P:z            10
                        (     108.279 eV)
   249     249       --         1.128 au  O             1.00      1 D:z2           10
                        (      30.706 eV)
   250     250       --         1.128 au  O             1.00      1 D:x2-y2        10
                        (      30.706 eV)
   251     251       --         1.128 au  O             1.00      1 D:xy           10
                        (      30.706 eV)
   252     252       --         1.128 au  O             1.00      1 D:xz           10
                        (      30.706 eV)
   253     253       --         1.128 au  O             1.00      1 D:yz           10
                        (      30.706 eV)
   254     254       --         3.446 au  O             1.00      1 F:z3           10
                        (      93.772 eV)
   255     255       --         3.446 au  O             1.00      1 F:z            10
                        (      93.772 eV)
   256     256       --         3.446 au  O             1.00      1 F:xyz          10
                        (      93.772 eV)
   257     257       --         3.446 au  O             1.00      1 F:z2x          10
                        (      93.772 eV)
   258     258       --         3.446 au  O             1.00      1 F:z2y          10
                        (      93.772 eV)
   259     259       --         3.446 au  O             1.00      1 F:x            10
                        (      93.772 eV)
   260     260       --         3.446 au  O             1.00      1 F:y            10
                        (      93.772 eV)
   261     261      2.000     -19.396 au  O             1.00      1 S              11
                        (    -527.798 eV)
   262     262      2.000      -0.999 au  O             1.00      2 S              11
                        (     -27.197 eV)
   263     263       --         0.856 au  O             1.00      3 S              11
                        (      23.286 eV)
   264     264       --        13.669 au  O             1.00      4 S              11
                        (     371.959 eV)
   265     265       --       122.371 au  O             1.00      5 S              11
                        (    3329.873 eV)
   266     266      1.333      -0.366 au  O             1.00      1 P:x            11
                        (      -9.955 eV)
   267     267       --         0.397 au  O             1.00      2 P:x            11
                        (      10.811 eV)
   268     268       --         3.979 au  O             1.00      3 P:x            11
                        (     108.279 eV)
   269     269      1.333      -0.366 au  O             1.00      1 P:y            11
                        (      -9.955 eV)
   270     270       --         0.397 au  O             1.00      2 P:y            11
                        (      10.811 eV)
   271     271       --         3.979 au  O             1.00      3 P:y            11
                        (     108.279 eV)
   272     272      1.333      -0.366 au  O             1.00      1 P:z            11
                        (      -9.955 eV)
   273     273       --         0.397 au  O             1.00      2 P:z            11
                        (      10.811 eV)
   274     274       --         3.979 au  O             1.00      3 P:z            11
                        (     108.279 eV)
   275     275       --         1.128 au  O             1.00      1 D:z2           11
                        (      30.706 eV)
   276     276       --         1.128 au  O             1.00      1 D:x2-y2        11
                        (      30.706 eV)
   277     277       --         1.128 au  O             1.00      1 D:xy           11
                        (      30.706 eV)
   278     278       --         1.128 au  O             1.00      1 D:xz           11
                        (      30.706 eV)
   279     279       --         1.128 au  O             1.00      1 D:yz           11
                        (      30.706 eV)
   280     280       --         3.446 au  O             1.00      1 F:z3           11
                        (      93.772 eV)
   281     281       --         3.446 au  O             1.00      1 F:z            11
                        (      93.772 eV)
   282     282       --         3.446 au  O             1.00      1 F:xyz          11
                        (      93.772 eV)
   283     283       --         3.446 au  O             1.00      1 F:z2x          11
                        (      93.772 eV)
   284     284       --         3.446 au  O             1.00      1 F:z2y          11
                        (      93.772 eV)
   285     285       --         3.446 au  O             1.00      1 F:x            11
                        (      93.772 eV)
   286     286       --         3.446 au  O             1.00      1 F:y            11
                        (      93.772 eV)
   287     287      2.000     -19.396 au  O             1.00      1 S              12
                        (    -527.798 eV)
   288     288      2.000      -0.999 au  O             1.00      2 S              12
                        (     -27.197 eV)
   289     289       --         0.856 au  O             1.00      3 S              12
                        (      23.286 eV)
   290     290       --        13.669 au  O             1.00      4 S              12
                        (     371.959 eV)
   291     291       --       122.371 au  O             1.00      5 S              12
                        (    3329.873 eV)
   292     292      1.333      -0.366 au  O             1.00      1 P:x            12
                        (      -9.955 eV)
   293     293       --         0.397 au  O             1.00      2 P:x            12
                        (      10.811 eV)
   294     294       --         3.979 au  O             1.00      3 P:x            12
                        (     108.279 eV)
   295     295      1.333      -0.366 au  O             1.00      1 P:y            12
                        (      -9.955 eV)
   296     296       --         0.397 au  O             1.00      2 P:y            12
                        (      10.811 eV)
   297     297       --         3.979 au  O             1.00      3 P:y            12
                        (     108.279 eV)
   298     298      1.333      -0.366 au  O             1.00      1 P:z            12
                        (      -9.955 eV)
   299     299       --         0.397 au  O             1.00      2 P:z            12
                        (      10.811 eV)
   300     300       --         3.979 au  O             1.00      3 P:z            12
                        (     108.279 eV)
   301     301       --         1.128 au  O             1.00      1 D:z2           12
                        (      30.706 eV)
   302     302       --         1.128 au  O             1.00      1 D:x2-y2        12
                        (      30.706 eV)
   303     303       --         1.128 au  O             1.00      1 D:xy           12
                        (      30.706 eV)
   304     304       --         1.128 au  O             1.00      1 D:xz           12
                        (      30.706 eV)
   305     305       --         1.128 au  O             1.00      1 D:yz           12
                        (      30.706 eV)
   306     306       --         3.446 au  O             1.00      1 F:z3           12
                        (      93.772 eV)
   307     307       --         3.446 au  O             1.00      1 F:z            12
                        (      93.772 eV)
   308     308       --         3.446 au  O             1.00      1 F:xyz          12
                        (      93.772 eV)
   309     309       --         3.446 au  O             1.00      1 F:z2x          12
                        (      93.772 eV)
   310     310       --         3.446 au  O             1.00      1 F:z2y          12
                        (      93.772 eV)
   311     311       --         3.446 au  O             1.00      1 F:x            12
                        (      93.772 eV)
   312     312       --         3.446 au  O             1.00      1 F:y            12
                        (      93.772 eV)
   313     313      2.000   -1481.887 au  Ce            1.00      1 S              13
                        (  -40324.185 eV)
   314     314      2.000    -238.270 au  Ce            1.00      2 S              13
                        (   -6483.643 eV)
   315     315      2.000     -51.741 au  Ce            1.00      3 S              13
                        (   -1407.948 eV)
   316     316      2.000     -10.690 au  Ce            1.00      4 S              13
                        (    -290.886 eV)
   317     317      2.000      -1.613 au  Ce            1.00      5 S              13
                        (     -43.893 eV)
   318     318      2.000      -0.159 au  Ce            1.00      6 S              13
                        (      -4.314 eV)
   319     319       --         0.023 au  Ce            1.00      7 S              13
                        (       0.614 eV)
   320     320       --         0.265 au  Ce            1.00      8 S              13
                        (       7.201 eV)
   321     321       --         1.516 au  Ce            1.00      9 S              13
                        (      41.263 eV)
   322     322       --         9.989 au  Ce            1.00     10 S              13
                        (     271.809 eV)
   323     323       --        65.483 au  Ce            1.00     11 S              13
                        (    1781.873 eV)
   324     324       --       967.509 au  Ce            1.00     12 S              13
                        (   26327.262 eV)
   325     325       --      6194.622 au  Ce            1.00     13 S              13
                        (  168564.235 eV)
   326     326       --     33535.604 au  Ce            1.00     14 S              13
                        (  912550.218 eV)
   327     327      2.000    -213.584 au  Ce            1.00      1 P:x            13
                        (   -5811.925 eV)
   328     328      2.000     -43.867 au  Ce            1.00      2 P:x            13
                        (   -1193.685 eV)
   329     329      2.000      -8.081 au  Ce            1.00      3 P:x            13
                        (    -219.908 eV)
   330     330      2.000      -0.935 au  Ce            1.00      4 P:x            13
                        (     -25.434 eV)
   331     331       --        -0.028 au  Ce            1.00      5 P:x            13
                        (      -0.749 eV)
   332     332       --         0.615 au  Ce            1.00      6 P:x            13
                        (      16.743 eV)
   333     333       --         5.940 au  Ce            1.00      7 P:x            13
                        (     161.648 eV)
   334     334       --        41.320 au  Ce            1.00      8 P:x            13
                        (    1124.370 eV)
   335     335       --       392.719 au  Ce            1.00      9 P:x            13
                        (   10686.436 eV)
   336     336       --      3897.937 au  Ce            1.00     10 P:x            13
                        (  106068.258 eV)
   337     337      2.000    -213.584 au  Ce            1.00      1 P:y            13
                        (   -5811.925 eV)
   338     338      2.000     -43.867 au  Ce            1.00      2 P:y            13
                        (   -1193.685 eV)
   339     339      2.000      -8.081 au  Ce            1.00      3 P:y            13
                        (    -219.908 eV)
   340     340      2.000      -0.935 au  Ce            1.00      4 P:y            13
                        (     -25.434 eV)
   341     341       --        -0.028 au  Ce            1.00      5 P:y            13
                        (      -0.749 eV)
   342     342       --         0.615 au  Ce            1.00      6 P:y            13
                        (      16.743 eV)
   343     343       --         5.940 au  Ce            1.00      7 P:y            13
                        (     161.648 eV)
   344     344       --        41.320 au  Ce            1.00      8 P:y            13
                        (    1124.370 eV)
   345     345       --       392.719 au  Ce            1.00      9 P:y            13
                        (   10686.436 eV)
   346     346       --      3897.937 au  Ce            1.00     10 P:y            13
                        (  106068.258 eV)
   347     347      2.000    -213.584 au  Ce            1.00      1 P:z            13
                        (   -5811.925 eV)
   348     348      2.000     -43.867 au  Ce            1.00      2 P:z            13
                        (   -1193.685 eV)
   349     349      2.000      -8.081 au  Ce            1.00      3 P:z            13
                        (    -219.908 eV)
   350     350      2.000      -0.935 au  Ce            1.00      4 P:z            13
                        (     -25.434 eV)
   351     351       --        -0.028 au  Ce            1.00      5 P:z            13
                        (      -0.749 eV)
   352     352       --         0.615 au  Ce            1.00      6 P:z            13
                        (      16.743 eV)
   353     353       --         5.940 au  Ce            1.00      7 P:z            13
                        (     161.648 eV)
   354     354       --        41.320 au  Ce            1.00      8 P:z            13
                        (    1124.370 eV)
   355     355       --       392.719 au  Ce            1.00      9 P:z            13
                        (   10686.436 eV)
   356     356       --      3897.937 au  Ce            1.00     10 P:z            13
                        (  106068.258 eV)
   357     357      2.000     -32.467 au  Ce            1.00      1 D:z2           13
                        (    -883.464 eV)
   358     358      2.000      -4.249 au  Ce            1.00      2 D:z2           13
                        (    -115.613 eV)
   359     359      0.200      -0.088 au  Ce            1.00      3 D:z2           13
                        (      -2.388 eV)
   360     360       --         0.084 au  Ce            1.00      4 D:z2           13
                        (       2.296 eV)
   361     361       --         0.636 au  Ce            1.00      5 D:z2           13
                        (      17.302 eV)
   362     362       --         4.956 au  Ce            1.00      6 D:z2           13
                        (     134.851 eV)
   363     363       --        50.594 au  Ce            1.00      7 D:z2           13
                        (    1376.721 eV)
   364     364      2.000     -32.467 au  Ce            1.00      1 D:x2-y2        13
                        (    -883.464 eV)
   365     365      2.000      -4.249 au  Ce            1.00      2 D:x2-y2        13
                        (    -115.613 eV)
   366     366      0.200      -0.088 au  Ce            1.00      3 D:x2-y2        13
                        (      -2.388 eV)
   367     367       --         0.084 au  Ce            1.00      4 D:x2-y2        13
                        (       2.296 eV)
   368     368       --         0.636 au  Ce            1.00      5 D:x2-y2        13
                        (      17.302 eV)
   369     369       --         4.956 au  Ce            1.00      6 D:x2-y2        13
                        (     134.851 eV)
   370     370       --        50.594 au  Ce            1.00      7 D:x2-y2        13
                        (    1376.721 eV)
   371     371      2.000     -32.467 au  Ce            1.00      1 D:xy           13
                        (    -883.464 eV)
   372     372      2.000      -4.249 au  Ce            1.00      2 D:xy           13
                        (    -115.613 eV)
   373     373      0.200      -0.088 au  Ce            1.00      3 D:xy           13
                        (      -2.388 eV)
   374     374       --         0.084 au  Ce            1.00      4 D:xy           13
                        (       2.296 eV)
   375     375       --         0.636 au  Ce            1.00      5 D:xy           13
                        (      17.302 eV)
   376     376       --         4.956 au  Ce            1.00      6 D:xy           13
                        (     134.851 eV)
   377     377       --        50.594 au  Ce            1.00      7 D:xy           13
                        (    1376.721 eV)
   378     378      2.000     -32.467 au  Ce            1.00      1 D:xz           13
                        (    -883.464 eV)
   379     379      2.000      -4.249 au  Ce            1.00      2 D:xz           13
                        (    -115.613 eV)
   380     380      0.200      -0.088 au  Ce            1.00      3 D:xz           13
                        (      -2.388 eV)
   381     381       --         0.084 au  Ce            1.00      4 D:xz           13
                        (       2.296 eV)
   382     382       --         0.636 au  Ce            1.00      5 D:xz           13
                        (      17.302 eV)
   383     383       --         4.956 au  Ce            1.00      6 D:xz           13
                        (     134.851 eV)
   384     384       --        50.594 au  Ce            1.00      7 D:xz           13
                        (    1376.721 eV)
   385     385      2.000     -32.467 au  Ce            1.00      1 D:yz           13
                        (    -883.464 eV)
   386     386      2.000      -4.249 au  Ce            1.00      2 D:yz           13
                        (    -115.613 eV)
   387     387      0.200      -0.088 au  Ce            1.00      3 D:yz           13
                        (      -2.388 eV)
   388     388       --         0.084 au  Ce            1.00      4 D:yz           13
                        (       2.296 eV)
   389     389       --         0.636 au  Ce            1.00      5 D:yz           13
                        (      17.302 eV)
   390     390       --         4.956 au  Ce            1.00      6 D:yz           13
                        (     134.851 eV)
   391     391       --        50.594 au  Ce            1.00      7 D:yz           13
                        (    1376.721 eV)
   392     392      0.143      -0.100 au  Ce            1.00      1 F:z3           13
                        (      -2.729 eV)
   393     393       --         0.619 au  Ce            1.00      2 F:z3           13
                        (      16.847 eV)
   394     394       --         5.102 au  Ce            1.00      3 F:z3           13
                        (     138.841 eV)
   395     395      0.143      -0.100 au  Ce            1.00      1 F:z            13
                        (      -2.729 eV)
   396     396       --         0.619 au  Ce            1.00      2 F:z            13
                        (      16.847 eV)
   397     397       --         5.102 au  Ce            1.00      3 F:z            13
                        (     138.841 eV)
   398     398      0.143      -0.100 au  Ce            1.00      1 F:xyz          13
                        (      -2.729 eV)
   399     399       --         0.619 au  Ce            1.00      2 F:xyz          13
                        (      16.847 eV)
   400     400       --         5.102 au  Ce            1.00      3 F:xyz          13
                        (     138.841 eV)
   401     401      0.143      -0.100 au  Ce            1.00      1 F:z2x          13
                        (      -2.729 eV)
   402     402       --         0.619 au  Ce            1.00      2 F:z2x          13
                        (      16.847 eV)
   403     403       --         5.102 au  Ce            1.00      3 F:z2x          13
                        (     138.841 eV)
   404     404      0.143      -0.100 au  Ce            1.00      1 F:z2y          13
                        (      -2.729 eV)
   405     405       --         0.619 au  Ce            1.00      2 F:z2y          13
                        (      16.847 eV)
   406     406       --         5.102 au  Ce            1.00      3 F:z2y          13
                        (     138.841 eV)
   407     407      0.143      -0.100 au  Ce            1.00      1 F:x            13
                        (      -2.729 eV)
   408     408       --         0.619 au  Ce            1.00      2 F:x            13
                        (      16.847 eV)
   409     409       --         5.102 au  Ce            1.00      3 F:x            13
                        (     138.841 eV)
   410     410      0.143      -0.100 au  Ce            1.00      1 F:y            13
                        (      -2.729 eV)
   411     411       --         0.619 au  Ce            1.00      2 F:y            13
                        (      16.847 eV)
   412     412       --         5.102 au  Ce            1.00      3 F:y            13
                        (     138.841 eV)
   413     413      2.000     -14.564 au  N             1.00      1 S              14
                        (    -396.299 eV)
   414     414      2.000      -0.781 au  N             1.00      2 S              14
                        (     -21.259 eV)
   415     415       --         0.567 au  N             1.00      3 S              14
                        (      15.427 eV)
   416     416       --         7.036 au  N             1.00      4 S              14
                        (     191.468 eV)
   417     417       --        64.014 au  N             1.00      5 S              14
                        (    1741.899 eV)
   418     418      1.000      -0.270 au  N             1.00      1 P:x            14
                        (      -7.353 eV)
   419     419       --         0.326 au  N             1.00      2 P:x            14
                        (       8.878 eV)
   420     420       --         3.416 au  N             1.00      3 P:x            14
                        (      92.956 eV)
   421     421      1.000      -0.270 au  N             1.00      1 P:y            14
                        (      -7.353 eV)
   422     422       --         0.326 au  N             1.00      2 P:y            14
                        (       8.878 eV)
   423     423       --         3.416 au  N             1.00      3 P:y            14
                        (      92.956 eV)
   424     424      1.000      -0.270 au  N             1.00      1 P:z            14
                        (      -7.353 eV)
   425     425       --         0.326 au  N             1.00      2 P:z            14
                        (       8.878 eV)
   426     426       --         3.416 au  N             1.00      3 P:z            14
                        (      92.956 eV)
   427     427       --         1.308 au  N             1.00      1 D:z2           14
                        (      35.586 eV)
   428     428       --         1.308 au  N             1.00      1 D:x2-y2        14
                        (      35.586 eV)
   429     429       --         1.308 au  N             1.00      1 D:xy           14
                        (      35.586 eV)
   430     430       --         1.308 au  N             1.00      1 D:xz           14
                        (      35.586 eV)
   431     431       --         1.308 au  N             1.00      1 D:yz           14
                        (      35.586 eV)
   432     432       --         4.100 au  N             1.00      1 F:z3           14
                        (     111.558 eV)
   433     433       --         4.100 au  N             1.00      1 F:z            14
                        (     111.558 eV)
   434     434       --         4.100 au  N             1.00      1 F:xyz          14
                        (     111.558 eV)
   435     435       --         4.100 au  N             1.00      1 F:z2x          14
                        (     111.558 eV)
   436     436       --         4.100 au  N             1.00      1 F:z2y          14
                        (     111.558 eV)
   437     437       --         4.100 au  N             1.00      1 F:x            14
                        (     111.558 eV)
   438     438       --         4.100 au  N             1.00      1 F:y            14
                        (     111.558 eV)
   439     439      2.000     -14.564 au  N             1.00      1 S              15
                        (    -396.299 eV)
   440     440      2.000      -0.781 au  N             1.00      2 S              15
                        (     -21.259 eV)
   441     441       --         0.567 au  N             1.00      3 S              15
                        (      15.427 eV)
   442     442       --         7.036 au  N             1.00      4 S              15
                        (     191.468 eV)
   443     443       --        64.014 au  N             1.00      5 S              15
                        (    1741.899 eV)
   444     444      1.000      -0.270 au  N             1.00      1 P:x            15
                        (      -7.353 eV)
   445     445       --         0.326 au  N             1.00      2 P:x            15
                        (       8.878 eV)
   446     446       --         3.416 au  N             1.00      3 P:x            15
                        (      92.956 eV)
   447     447      1.000      -0.270 au  N             1.00      1 P:y            15
                        (      -7.353 eV)
   448     448       --         0.326 au  N             1.00      2 P:y            15
                        (       8.878 eV)
   449     449       --         3.416 au  N             1.00      3 P:y            15
                        (      92.956 eV)
   450     450      1.000      -0.270 au  N             1.00      1 P:z            15
                        (      -7.353 eV)
   451     451       --         0.326 au  N             1.00      2 P:z            15
                        (       8.878 eV)
   452     452       --         3.416 au  N             1.00      3 P:z            15
                        (      92.956 eV)
   453     453       --         1.308 au  N             1.00      1 D:z2           15
                        (      35.586 eV)
   454     454       --         1.308 au  N             1.00      1 D:x2-y2        15
                        (      35.586 eV)
   455     455       --         1.308 au  N             1.00      1 D:xy           15
                        (      35.586 eV)
   456     456       --         1.308 au  N             1.00      1 D:xz           15
                        (      35.586 eV)
   457     457       --         1.308 au  N             1.00      1 D:yz           15
                        (      35.586 eV)
   458     458       --         4.100 au  N             1.00      1 F:z3           15
                        (     111.558 eV)
   459     459       --         4.100 au  N             1.00      1 F:z            15
                        (     111.558 eV)
   460     460       --         4.100 au  N             1.00      1 F:xyz          15
                        (     111.558 eV)
   461     461       --         4.100 au  N             1.00      1 F:z2x          15
                        (     111.558 eV)
   462     462       --         4.100 au  N             1.00      1 F:z2y          15
                        (     111.558 eV)
   463     463       --         4.100 au  N             1.00      1 F:x            15
                        (     111.558 eV)
   464     464       --         4.100 au  N             1.00      1 F:y            15
                        (     111.558 eV)
   465     465      2.000     -14.564 au  N             1.00      1 S              16
                        (    -396.299 eV)
   466     466      2.000      -0.781 au  N             1.00      2 S              16
                        (     -21.259 eV)
   467     467       --         0.567 au  N             1.00      3 S              16
                        (      15.427 eV)
   468     468       --         7.036 au  N             1.00      4 S              16
                        (     191.468 eV)
[...]
     449       36.6511         0.000       
     448       36.3306         0.000       
     447       36.3183         0.000       
     446       35.5456         0.000       
     445       35.5056         0.000       
     444       35.2925         0.000       
     443       35.2834         0.000       
     442       34.8882         0.000       
     441       34.8785         0.000       
     440       34.7330         0.000       
     439       34.7155         0.000       
     438       33.8814         0.000       
     437       33.8520         0.000       
     436       33.4621         0.000       
     435       33.4419         0.000       
     434       33.3717         0.000       
     433       33.3252         0.000       
     432       32.7368         0.000       
     431       32.7026         0.000       
     430       32.3630         0.000       
     429       32.3037         0.000       
     428       31.8798         0.000       
     427       31.8662         0.000       
     426       31.7873         0.000       
     425       31.7549         0.000       
     424       31.5854         0.000       
     423       31.5032         0.000       
     422       31.0273         0.000       
     421       31.0118         0.000       
     420       30.7631         0.000       
     419       30.6942         0.000       
     418       30.6369         0.000       
     417       30.5828         0.000       
     416       29.9534         0.000       
     415       29.8259         0.000       
     414       29.6849         0.000       
     413       29.6487         0.000       
     412       28.8813         0.000       
     411       28.8794         0.000       
     410       28.7021         0.000       
     409       28.6333         0.000       
     408       28.4674         0.000       
     407       28.4528         0.000       
     406       28.1386         0.000       
     405       28.0880         0.000       
     404       27.7610         0.000       
     403       27.7324         0.000       
     402       27.5680         0.000       
     401       27.5492         0.000       
     400       27.4426         0.000       
     399       27.4182         0.000       
     398       27.3355         0.000       
     397       27.3174         0.000       
     396       26.7285         0.000       
     395       26.7045         0.000       
     394       26.5658         0.000       
     393       26.5362         0.000       
     392       26.4326         0.000       
     391       26.4036         0.000       
     390       25.8435         0.000       
     389       25.8326         0.000       
     388       25.6077         0.000       
     387       25.5299         0.000       
     386       25.1881         0.000       
     385       25.1434         0.000       
     384       25.0077         0.000       
     383       24.9565         0.000       
     382       24.0429         0.000       
     381       23.9751         0.000       
     380       23.4640         0.000       
     379       23.3961         0.000       
     378       22.9529         0.000       
     377       22.9173         0.000       
     376       22.6659         0.000       
     375       22.6116         0.000       
     374       22.3788         0.000       
     373       22.3725         0.000       
     372       22.2020         0.000       
     371       22.1571         0.000       
     370       21.9619         0.000       
     369       21.9392         0.000       
     368       21.3053         0.000       
     367       21.2015         0.000       
     366       20.6581         0.000       
     365       20.6167         0.000       
     364       20.5420         0.000       
     363       20.4666         0.000       
     362       20.3906         0.000       
     361       20.3342         0.000       
     360       20.1680         0.000       
     359       20.1284         0.000       
     358       19.9092         0.000       
     357       19.8595         0.000       
     356       19.7350         0.000       
     355       19.7073         0.000       
     354       19.6230         0.000       
     353       19.6032         0.000       
     352       19.3786         0.000       
     351       19.3648         0.000       
     350       18.9231         0.000       
     349       18.8685         0.000       
     348       18.2486         0.000       
     347       18.2462         0.000       
     346       18.2249         0.000       
     345       18.0864         0.000       
     344       17.8277         0.000       
     343       17.7677         0.000       
     342       17.5536         0.000       
     341       17.5381         0.000       
     340       17.3966         0.000       
     339       17.3918         0.000       
     338       17.1460         0.000       
     337       17.1294         0.000       
     336       16.8774         0.000       
     335       16.8451         0.000       
     334       16.5701         0.000       
     333       16.5614         0.000       
     332       16.5406         0.000       
     331       16.5338         0.000       
     330       16.4947         0.000       
     329       16.4902         0.000       
     328       16.2625         0.000       
     327       16.2268         0.000       
     326       16.2012         0.000       
     325       16.1586         0.000       
     324       15.7669         0.000       
     323       15.7465         0.000       
     322       15.5767         0.000       
     321       15.5193         0.000       
     320       15.3607         0.000       
     319       15.2857         0.000       
     318       14.9789         0.000       
     317       14.8572         0.000       
     316       14.7435         0.000       
     315       14.7167         0.000       
     314       14.2268         0.000       
     313       14.2169         0.000       
     312       14.1110         0.000       
     311       14.0066         0.000       
     310       13.7983         0.000       
     309       13.7558         0.000       
     308       13.6553         0.000       
     307       13.6100         0.000       
     306       13.5346         0.000       
     305       13.5173         0.000       
     304       13.3885         0.000       
     303       13.3604         0.000       
     302       12.7636         0.000       
     301       12.7594         0.000       
     300       12.5932         0.000       
     299       12.5771         0.000       
     298       12.4004         0.000       
     297       12.3928         0.000       
     296       12.2217         0.000       
     295       12.1988         0.000       
     294       12.0561         0.000       
     293       12.0399         0.000       
     292       11.8728         0.000       
     291       11.8657         0.000       
     290       11.8290         0.000       
     289       11.8202         0.000       
     288       11.6440         0.000       
     287       11.6317         0.000       
     286       11.3269         0.000       
     285       11.3192         0.000       
     284       11.1071         0.000       
     283       11.0974         0.000       
     282       10.8643         0.000       
     281       10.8544         0.000       
     280       10.1070         0.000       
     279       10.0990         0.000       
     278        9.8683         0.000       
     277        9.8565         0.000       
     276        9.4329         0.000       
     275        9.4126         0.000       
     274        9.1206         0.000       
     273        9.1137         0.000       
     272        8.9444         0.000       
     271        8.9242         0.000       
     270        8.7595         0.000       
     269        8.7308         0.000       
     268        8.6913         0.000       
     267        8.6761         0.000       
     266        8.5592         0.000       
     265        8.5530         0.000       
     264        8.1632         0.000       
     263        8.1595         0.000       
     262        7.9623         0.000       
     261        7.9551         0.000       
     260        7.7693         0.000       
     259        7.7633         0.000       
     258        7.2777         0.000       
     257        7.2587         0.000       
     256        7.0333         0.000       
     255        7.0260         0.000       
     254        6.9057         0.000       
     253        6.9018         0.000       
     252        6.5839         0.000       
     251        6.5732         0.000       
     250        6.4117         0.000       
     249        6.3883         0.000       
     248        6.0638         0.000       
     247        6.0439         0.000       
     246        5.5322         0.000       
     245        5.5192         0.000       
     244        5.2085         0.000       
     243        5.1743         0.000       
     242        4.4399         0.000       
     241        4.4215         0.000       
     240        4.3164         0.000       
     239        4.2737         0.000       
     238        4.1190         0.000       
     237        4.1137         0.000       
     236        3.8870         0.000       
     235        3.8747         0.000       
     234        3.3677         0.000       
     233        3.3605         0.000       
     232        3.0851         0.000       
     231        3.0589         0.000       
     230        2.8008         0.000       
     229        2.7825         0.000       
     228        2.7116         0.000       
     227        2.5995         0.000       
     226        2.2943         0.000       
     225        2.2404         0.000       
     224        2.0999         0.000       
     223        2.0852         0.000       
     222        1.9547         0.000       
     221        1.8550         0.000       
     220        1.3784         0.000       
     219        1.3730         0.000       
     218        1.2631         0.000       
     217        1.1613         0.000       
     216        1.1066         0.000       
     215        1.0424         0.000       
     214        1.0278         0.000       
     213        0.9793         0.000       
     212        0.9361         0.000       
     211        0.8694         0.000       
     210        0.8340         0.000       
     209        0.7420         0.000       
     208        0.3852         0.000       
     207        0.0628         0.000       
     206        0.0096         0.000       
     205       -0.1316         0.000       
     204       -0.1739         0.000       
     203       -0.2326         0.000       
     202       -0.2672         0.000       
     201       -0.3252         0.000       
     200       -0.4467         0.000       
     199       -0.4898         0.000       
     198       -0.5428         0.000       
     197       -0.6298         0.000       
     196       -0.6463         0.000       
     195       -0.6683         0.000       
     194       -0.7579         0.000       
     193       -0.8431         0.000       
     192       -0.9610         0.000       
     191       -1.0156         0.000       
     190       -1.0571         0.000       
     189       -1.1489         0.000       
     188       -1.2175         0.000       
     187       -1.4257         0.000       
     186       -1.4804         0.000       
     185       -1.6393         0.000       
     184       -1.6817         0.000       
     183       -2.0291         0.000       
     182       -2.0683         0.000 < LUMO
     181       -6.6414         1.000 < HOMO
     180       -7.8984         1.000       
     179       -7.8997         1.000       
     178       -8.3580         1.000       
     177       -8.3625         1.000       
     176       -8.6331         1.000       
     175       -8.6383         1.000       
     174       -8.8940         1.000       
     173       -8.8969         1.000       
     172       -9.0737         1.000       
     171       -9.0775         1.000       
     170       -9.3360         1.000       
     169       -9.3404         1.000       
     168       -9.4420         1.000       
     167       -9.4451         1.000       
     166       -9.5557         1.000       
     165       -9.5577         1.000       
     164       -9.6877         1.000       
     163       -9.6918         1.000       
     162       -9.8129         1.000       
     161       -9.8175         1.000       
     160       -9.8936         1.000       
     159       -9.8969         1.000       
     158      -10.0054         1.000       
     157      -10.0093         1.000       
     156      -10.0601         1.000       
     155      -10.0772         1.000       
     154      -10.2893         1.000       
     153      -10.3041         1.000       
     152      -11.1405         1.000       
     151      -11.1506         1.000       
     150      -11.3728         1.000       
     149      -11.3817         1.000       
     148      -11.6939         1.000       
     147      -11.7034         1.000       
     146      -12.7470         1.000       
     145      -12.7478         1.000       
     144      -13.5402         1.000       
     143      -13.5562         1.000       
     142      -14.2948         1.000       
     141      -14.3031         1.000       
     140      -14.5678         1.000       
     139      -14.5877         1.000       
     138      -14.7532         1.000       
     137      -14.7539         1.000       
     136      -15.2440         1.000       
     135      -15.2445         1.000       
     134      -15.2647         1.000       
     133      -15.2655         1.000       
     132      -15.3708         1.000       
     131      -15.3710         1.000       
     130      -15.6789         1.000       
     129      -15.6792         1.000       
     128      -15.8314         1.000       
     127      -15.8353         1.000       
     126      -15.9473         1.000       
     125      -15.9478         1.000       
     124      -16.1884         1.000       
     123      -16.1897         1.000       
     122      -16.3242         1.000       
     121      -16.3256         1.000       
     120      -17.0823         1.000       
     119      -17.0834         1.000       
     118      -17.3468         1.000       
     117      -17.3511         1.000       
     116      -17.4587         1.000       
     115      -17.4595         1.000       
     114      -18.0061         1.000       
     113      -18.0148         1.000       
     112      -18.1300         1.000       
     111      -18.1318         1.000       
     110      -18.9319         1.000       
     109      -18.9588         1.000       
     108      -23.3480         1.000       
     107      -23.4302         1.000       
     106      -23.5851         1.000       
     105      -23.7471         1.000       
     104      -26.0388         1.000       
     103      -26.1675         1.000       
     102      -28.9604         1.000       
     101      -28.9642         1.000       
     100      -29.4830         1.000       
      99      -29.4873         1.000       
      98      -29.5895         1.000       
      97      -29.5935         1.000       
      96      -29.6241         1.000       
      95      -29.6256         1.000       
      94      -30.1664         1.000       
      93      -30.1665         1.000       
      92      -30.3190         1.000       
      91      -30.3227         1.000       
      90      -30.6320         1.000       
      89      -30.6342         1.000       
      88      -30.9429         1.000       
      87      -30.9468         1.000       
      86      -32.0916         1.000       
      85      -32.0993         1.000       
      84      -35.3544         1.000       
      83      -35.3551         1.000       
      82      -35.8894         1.000       
      81      -35.8896         1.000       
      80      -36.0020         1.000       
      79      -36.0023         1.000       
      78      -42.2527         1.000       
      77      -42.7677         1.000       
      76     -111.5410         1.000       
      75     -111.7201         1.000       
      74     -111.9604         1.000       
      73     -112.2574         1.000       
      72     -112.3593         1.000       
      71     -112.5465         1.000       
      70     -115.0879         1.000       
      69     -115.5208         1.000       
      68     -115.8712         1.000       
      67     -116.2099         1.000       
      66     -211.2769         1.000       
      65     -211.5491         1.000       
      64     -211.7962         1.000       
      63     -212.1124         1.000       
      62     -230.6592         1.000       
      61     -230.9312         1.000       
      60     -288.2582         1.000       
      59     -289.0650         1.000       
      58     -399.0360         1.000       
      57     -399.0365         1.000       
      56     -399.5861         1.000       
      55     -399.5867         1.000       
      54     -399.6959         1.000       
      53     -399.6965         1.000       
      52     -523.6085         1.000       
      51     -523.6093         1.000       
      50     -523.7416         1.000       
      49     -523.7441         1.000       
      48     -523.7493         1.000       
      47     -523.7519         1.000       
      46     -524.1414         1.000       
      45     -524.1416         1.000       
      44     -524.2370         1.000       
      43     -524.2396         1.000       
      42     -524.2556         1.000       
      41     -524.2559         1.000       
      40     -524.2798         1.000       
      39     -524.2826         1.000       
      38     -524.3382         1.000       
      37     -524.3407         1.000       
      36     -524.4056         1.000       
      35     -524.4084         1.000       
      34     -525.3001         1.000       
      33     -525.3012         1.000       
      32     -525.6115         1.000       
      31     -525.6123         1.000       
      30     -526.6116         1.000       
      29     -526.6133         1.000       
      28     -873.4743         1.000       
      27     -873.5489         1.000       
      26     -873.6156         1.000       
      25     -873.6894         1.000       
      24     -873.7030         1.000       
      23     -873.7661         1.000       
      22     -892.1896         1.000       
      21     -892.2955         1.000       
      20     -892.3750         1.000       
      19     -892.4881         1.000       
      18    -1163.1913         1.000       
      17    -1163.2980         1.000       
      16    -1163.3693         1.000       
      15    -1163.4901         1.000       
      14    -1251.5677         1.000       
      13    -1251.6454         1.000       
      12    -1405.3554         1.000       
      11    -1405.6161         1.000       
      10    -5668.7850         1.000       
       9    -5668.7863         1.000       
       8    -5668.8000         1.000       
       7    -5668.8018         1.000       
       6    -6115.1044         1.000       
       5    -6115.1053         1.000       
       4    -6480.8653         1.000       
       3    -6480.8677         1.000       
       2   -40319.1426         1.000       
       1   -40319.1427         1.000       
Attempting to store the results of the failed calculation ...

AMS application finished. Exiting.
NORMAL TERMINATION
     Total cpu time:   12480.29
  Total system time:     488.73
 Total elapsed time:   12974.80
