 Entering Gaussian System, Link 0=/home/pcmt/gaussian/g16.C.01/g16/g16
 Initial command:
 /home/pcmt/gaussian/g16.C.01/g16/l1.exe "/state/partition2/vallet/1008121.phlam-s-sakura/Gau-8256.inp" -scrdir="/state/partition2/vallet/1008121.phlam-s-sakura/"
 Entering Link 1 = /home/pcmt/gaussian/g16.C.01/g16/l1.exe PID=      8257.
  
 Copyright (c) 1988-2019, Gaussian, Inc.  All Rights Reserved.
  
 This is part of the Gaussian(R) 16 program.  It is based on
 the Gaussian(R) 09 system (copyright 2009, Gaussian, Inc.),
 the Gaussian(R) 03 system (copyright 2003, Gaussian, Inc.),
 the Gaussian(R) 98 system (copyright 1998, Gaussian, Inc.),
 the Gaussian(R) 94 system (copyright 1995, Gaussian, Inc.),
 the Gaussian 92(TM) system (copyright 1992, Gaussian, Inc.),
 the Gaussian 90(TM) system (copyright 1990, Gaussian, Inc.),
 the Gaussian 88(TM) system (copyright 1988, Gaussian, Inc.),
 the Gaussian 86(TM) system (copyright 1986, Carnegie Mellon
 University), and the Gaussian 82(TM) system (copyright 1983,
 Carnegie Mellon University). Gaussian is a federally registered
 trademark of Gaussian, Inc.
  
 This software contains proprietary and confidential information,
 including trade secrets, belonging to Gaussian, Inc.
  
 This software is provided under written license and may be
 used, copied, transmitted, or stored only in accord with that
 written license.
  
 The following legend is applicable only to US Government
 contracts under FAR:
  
                    RESTRICTED RIGHTS LEGEND
  
 Use, reproduction and disclosure by the US Government is
 subject to restrictions as set forth in subparagraphs (a)
 and (c) of the Commercial Computer Software - Restricted
 Rights clause in FAR 52.227-19.
  
 Gaussian, Inc.
 340 Quinnipiac St., Bldg. 40, Wallingford CT 06492
  
  
 ---------------------------------------------------------------
 Warning -- This program may not be used in any manner that
 competes with the business of Gaussian, Inc. or will provide
 assistance to any competitor of Gaussian, Inc.  The licensee
 of this program is prohibited from giving any competitor of
 Gaussian, Inc. access to this program.  By using this program,
 the user acknowledges that Gaussian, Inc. is engaged in the
 business of creating and licensing software in the field of
 computational chemistry and represents and warrants to the
 licensee that it is not a competitor of Gaussian, Inc. and that
 it will not use this program in any manner prohibited above.
 ---------------------------------------------------------------
  

 Cite this work as:
 Gaussian 16, Revision C.01,
 M. J. Frisch, G. W. Trucks, H. B. Schlegel, G. E. Scuseria, 
 M. A. Robb, J. R. Cheeseman, G. Scalmani, V. Barone, 
 G. A. Petersson, H. Nakatsuji, X. Li, M. Caricato, A. V. Marenich, 
 J. Bloino, B. G. Janesko, R. Gomperts, B. Mennucci, H. P. Hratchian, 
 J. V. Ortiz, A. F. Izmaylov, J. L. Sonnenberg, D. Williams-Young, 
 F. Ding, F. Lipparini, F. Egidi, J. Goings, B. Peng, A. Petrone, 
 T. Henderson, D. Ranasinghe, V. G. Zakrzewski, J. Gao, N. Rega, 
 G. Zheng, W. Liang, M. Hada, M. Ehara, K. Toyota, R. Fukuda, 
 J. Hasegawa, M. Ishida, T. Nakajima, Y. Honda, O. Kitao, H. Nakai, 
 T. Vreven, K. Throssell, J. A. Montgomery, Jr., J. E. Peralta, 
 F. Ogliaro, M. J. Bearpark, J. J. Heyd, E. N. Brothers, K. N. Kudin, 
 V. N. Staroverov, T. A. Keith, R. Kobayashi, J. Normand, 
 K. Raghavachari, A. P. Rendell, J. C. Burant, S. S. Iyengar, 
 J. Tomasi, M. Cossi, J. M. Millam, M. Klene, C. Adamo, R. Cammi, 
 J. W. Ochterski, R. L. Martin, K. Morokuma, O. Farkas, 
 J. B. Foresman, and D. J. Fox, Gaussian, Inc., Wallingford CT, 2019.
 
 ******************************************
 Gaussian 16:  ES64L-G16RevC.01  3-Jul-2019
                23-Feb-2024 
 ******************************************
 %mem=8000Mb
 %NProc=8
 Will use up to    8 processors via shared memory.
 %chk=no3-m.pbe0.optg-freq.chk
 ----------------------------------------------------------------------
 #p PBE1PBE/GEN/GEN GFInput GFOldPrint 5D 7F IOP(4/69=2, 6/7=3) Scf=(XQ
 C, NoVarAcc,MaxCycle=100,conver=8) Integral=(Grid=UltraFine) Guess=Har
 ris Symm=None Opt Freq=(Raman,InternalModes,SaveNormalModes) SCRF=(COS
 MO,Read)
 ----------------------------------------------------------------------
 1/18=20,19=15,26=6,38=1,40=2/1,3;
 2/9=110,12=2,15=3,17=6,18=5,40=1/2;
 3/5=7,8=11,11=2,24=11,25=1,30=1,70=22103,71=1,74=-13,75=-5,82=7/1,2,3;
 4/11=8,69=2/1;
 5/5=2,6=8,7=100,8=3,13=1,38=1/2,8;
 6/7=3,8=2,9=2,10=2,28=1/1;
 7/30=1,92=1/1,2,3,16;
 1/18=20,19=15,26=6/3(2);
 2/9=110,15=3/2;
 99//99;
 2/9=110,15=3/2;
 3/5=7,6=1,8=11,11=2,25=1,30=1,70=22105,71=1,74=-13,75=-5,82=7/1,2,3;
 4/5=5,11=8,16=3,69=2/1;
 5/5=2,6=8,7=100,8=3,13=1,38=1/2,8;
 7/30=1,92=1/1,2,3,16;
 1/18=20,19=15,26=6/3(-5);
 2/9=110,15=3/2;
 6/7=3,8=2,9=2,10=2,19=2,28=1/1;
 99/9=1/99;
 Leave Link    1 at Fri Feb 23 18:47:07 2024, MaxMem=  1048576000 cpu:               0.9 elap:               0.1
 (Enter /home/pcmt/gaussian/g16.C.01/g16/l101.exe)
 ------------------------
 no3-m.pbe0.optg-freq.chk
 ------------------------
 Symbolic Z-matrix:
 Charge = -1 Multiplicity = 1
 N                     0.        0.        0. 
 O                     0.        0.75      0.86603 
 O                     0.        0.75     -0.86603 
 O                     0.       -1.5       0. 
 
 ITRead=  0  0  0  0
 MicOpt= -1 -1 -1 -1
 NAtoms=      4 NQM=        4 NQMF=       0 NMMI=      0 NMMIF=      0
                NMic=       0 NMicF=      0.
                    Isotopes and Nuclear Properties:
 (Nuclear quadrupole moments (NQMom) in fm**2, nuclear magnetic moments (NMagM)
  in nuclear magnetons)

  Atom         1           2           3           4
 IAtWgt=          14          16          16          16
 AtmWgt=  14.0030740  15.9949146  15.9949146  15.9949146
 NucSpn=           2           0           0           0
 AtZEff=  -0.0000000  -0.0000000  -0.0000000  -0.0000000
 NQMom=    2.0440000   0.0000000   0.0000000   0.0000000
 NMagM=    0.4037610   0.0000000   0.0000000   0.0000000
 AtZNuc=   7.0000000   8.0000000   8.0000000   8.0000000
 Leave Link  101 at Fri Feb 23 18:47:07 2024, MaxMem=  1048576000 cpu:               1.6 elap:               0.3
 (Enter /home/pcmt/gaussian/g16.C.01/g16/l103.exe)

 GradGradGradGradGradGradGradGradGradGradGradGradGradGradGradGradGradGrad
 Berny optimization.
 Initialization pass.
                           ----------------------------
                           !    Initial Parameters    !
                           ! (Angstroms and Degrees)  !
 --------------------------                            --------------------------
 ! Name  Definition              Value          Derivative Info.                !
 --------------------------------------------------------------------------------
 ! R1    R(1,2)                  1.1456         estimate D2E/DX2                !
 ! R2    R(1,3)                  1.1456         estimate D2E/DX2                !
 ! R3    R(1,4)                  1.5            estimate D2E/DX2                !
 ! A1    A(2,1,3)               98.2132         estimate D2E/DX2                !
 ! A2    A(2,1,4)              130.8934         estimate D2E/DX2                !
 ! A3    A(3,1,4)              130.8934         estimate D2E/DX2                !
 ! D1    D(2,1,4,3)            180.0            estimate D2E/DX2                !
 --------------------------------------------------------------------------------
 Trust Radius=3.00D-01 FncErr=5.00D-06 GrdErr=5.00D-06 EigMax=2.50D+02 EigMin=1.00D-04
 Number of steps in this run=     20 maximum allowed number of steps=    100.
 GradGradGradGradGradGradGradGradGradGradGradGradGradGradGradGradGradGrad

 Leave Link  103 at Fri Feb 23 18:47:07 2024, MaxMem=  1048576000 cpu:               0.1 elap:               0.1
 (Enter /home/pcmt/gaussian/g16.C.01/g16/l202.exe)
                          Input orientation:                          
 ---------------------------------------------------------------------
 Center     Atomic      Atomic             Coordinates (Angstroms)
 Number     Number       Type             X           Y           Z
 ---------------------------------------------------------------------
      1          7           0        0.000000    0.000000    0.000000
      2          8           0        0.000000    0.750000    0.866025
      3          8           0        0.000000    0.750000   -0.866025
      4          8           0        0.000000   -1.500000    0.000000
 ---------------------------------------------------------------------
                    Distance matrix (angstroms):
                    1          2          3          4
     1  N    0.000000
     2  O    1.145644   0.000000
     3  O    1.145644   1.732051   0.000000
     4  O    1.500000   2.410913   2.410913   0.000000
 Symmetry turned off by external request.
 Stoichiometry    NO3
 Rotational constants (GHZ):          21.0641536           9.3618461           6.4812780
 Leave Link  202 at Fri Feb 23 18:47:07 2024, MaxMem=  1048576000 cpu:               0.0 elap:               0.0
 (Enter /home/pcmt/gaussian/g16.C.01/g16/l301.exe)
 General basis read from cards:  (5D, 7F)
 Centers:       2      3      4
 Def2TZVP
 ****
 Centers:       1
 Def2TZVP
 ****
 Ernie: Thresh=  0.10000D-02 Tol=  0.10000D-05 Strict=F.
 AO basis set in the form of general basis input (Overlap normalization):
      1 0
 S   6 1.00       0.000000000000
      0.1973080065D+05  0.5862640263D-03
      0.2957895874D+04  0.4542882059D-02
      0.6732213360D+03  0.2355841345D-01
      0.1906824949D+03  0.9470919329D-01
      0.6229544190D+02  0.2971978491D+00
      0.2265416118D+02  0.6691624690D+00
 S   2 1.00       0.000000000000
      0.8979147743D+01  0.6459668363D+00
      0.3686300237D+01  0.3870057439D+00
 S   1 1.00       0.000000000000
      0.8466007680D+00  0.1000000000D+01
 S   1 1.00       0.000000000000
      0.3364713377D+00  0.1000000000D+01
 S   1 1.00       0.000000000000
      0.1364765367D+00  0.1000000000D+01
 P   4 1.00       0.000000000000
      0.4920038051D+02  0.1144882510D-01
      0.1134679054D+02  0.7842233797D-01
      0.3427397241D+01  0.3081809474D+00
      0.1178552513D+01  0.7202719637D+00
 P   1 1.00       0.000000000000
      0.4164220497D+00  0.1000000000D+01
 P   1 1.00       0.000000000000
      0.1426082601D+00  0.1000000000D+01
 D   1 1.00       0.000000000000
      0.1654000000D+01  0.1000000000D+01
 D   1 1.00       0.000000000000
      0.4690000000D+00  0.1000000000D+01
 F   1 1.00       0.000000000000
      0.1093000000D+01  0.1000000000D+01
 ****
      2 0
 S   6 1.00       0.000000000000
      0.2703238263D+05  0.5722733521D-03
      0.4052387139D+04  0.4435323349D-02
      0.9223272271D+03  0.2302010771D-01
      0.2612407099D+03  0.9282249067D-01
      0.8535464135D+02  0.2937850001D+00
      0.3103503524D+02  0.6740160450D+00
 S   2 1.00       0.000000000000
      0.1226086073D+02  0.6383993703D+00
      0.4998707601D+01  0.3953458713D+00
 S   1 1.00       0.000000000000
      0.1170310816D+01  0.1000000000D+01
 S   1 1.00       0.000000000000
      0.4647474099D+00  0.1000000000D+01
 S   1 1.00       0.000000000000
      0.1850453636D+00  0.1000000000D+01
 P   4 1.00       0.000000000000
      0.6327495480D+02  0.1201833222D-01
      0.1462704938D+02  0.8300542179D-01
      0.4450122346D+01  0.3199174393D+00
      0.1527579965D+01  0.7071554292D+00
 P   1 1.00       0.000000000000
      0.5293511794D+00  0.1000000000D+01
 P   1 1.00       0.000000000000
      0.1747842127D+00  0.1000000000D+01
 D   1 1.00       0.000000000000
      0.2314000000D+01  0.1000000000D+01
 D   1 1.00       0.000000000000
      0.6450000000D+00  0.1000000000D+01
 F   1 1.00       0.000000000000
      0.1428000000D+01  0.1000000000D+01
 ****
      3 0
 S   6 1.00       0.000000000000
      0.2703238263D+05  0.5722733521D-03
      0.4052387139D+04  0.4435323349D-02
      0.9223272271D+03  0.2302010771D-01
      0.2612407099D+03  0.9282249067D-01
      0.8535464135D+02  0.2937850001D+00
      0.3103503524D+02  0.6740160450D+00
 S   2 1.00       0.000000000000
      0.1226086073D+02  0.6383993703D+00
      0.4998707601D+01  0.3953458713D+00
 S   1 1.00       0.000000000000
      0.1170310816D+01  0.1000000000D+01
 S   1 1.00       0.000000000000
      0.4647474099D+00  0.1000000000D+01
 S   1 1.00       0.000000000000
      0.1850453636D+00  0.1000000000D+01
 P   4 1.00       0.000000000000
      0.6327495480D+02  0.1201833222D-01
      0.1462704938D+02  0.8300542179D-01
      0.4450122346D+01  0.3199174393D+00
      0.1527579965D+01  0.7071554292D+00
 P   1 1.00       0.000000000000
      0.5293511794D+00  0.1000000000D+01
 P   1 1.00       0.000000000000
      0.1747842127D+00  0.1000000000D+01
 D   1 1.00       0.000000000000
      0.2314000000D+01  0.1000000000D+01
 D   1 1.00       0.000000000000
      0.6450000000D+00  0.1000000000D+01
 F   1 1.00       0.000000000000
      0.1428000000D+01  0.1000000000D+01
 ****
      4 0
 S   6 1.00       0.000000000000
      0.2703238263D+05  0.5722733521D-03
      0.4052387139D+04  0.4435323349D-02
      0.9223272271D+03  0.2302010771D-01
      0.2612407099D+03  0.9282249067D-01
      0.8535464135D+02  0.2937850001D+00
      0.3103503524D+02  0.6740160450D+00
 S   2 1.00       0.000000000000
      0.1226086073D+02  0.6383993703D+00
      0.4998707601D+01  0.3953458713D+00
 S   1 1.00       0.000000000000
      0.1170310816D+01  0.1000000000D+01
 S   1 1.00       0.000000000000
      0.4647474099D+00  0.1000000000D+01
 S   1 1.00       0.000000000000
      0.1850453636D+00  0.1000000000D+01
 P   4 1.00       0.000000000000
      0.6327495480D+02  0.1201833222D-01
      0.1462704938D+02  0.8300542179D-01
      0.4450122346D+01  0.3199174393D+00
      0.1527579965D+01  0.7071554292D+00
 P   1 1.00       0.000000000000
      0.5293511794D+00  0.1000000000D+01
 P   1 1.00       0.000000000000
      0.1747842127D+00  0.1000000000D+01
 D   1 1.00       0.000000000000
      0.2314000000D+01  0.1000000000D+01
 D   1 1.00       0.000000000000
      0.6450000000D+00  0.1000000000D+01
 F   1 1.00       0.000000000000
      0.1428000000D+01  0.1000000000D+01
 ****

 ***********************************************************************************************************************************
 *             ATOMIC CENTER             *        ATOMIC ORBITAL       *                     GAUSSIAN FUNCTIONS                    *
 ***********************************************************************************************************************************
 *                                       * FUNCTION    SHELL    SCALE  *                                                           *
 *    ATOM   X-COORD  Y-COORD  Z-COORD   *  NUMBER     TYPE     FACTOR *  EXPONENT    S-COEF      P-COEF      D-COEF      F-COEF   *
 ***********************************************************************************************************************************
 *     N      0.00000  0.00000  0.00000                                                                                            *
+                                                1   S           1.00                                                               
+                                                                      0.197308D+050.695604D+000.000000D+000.000000D+000.000000D+00 
 *                                                                     0.295790D+040.129861D+010.000000D+000.000000D+000.000000D+00*
 *                                                                     0.673221D+030.221909D+010.000000D+000.000000D+000.000000D+00*
 *                                                                     0.190682D+030.346366D+010.000000D+000.000000D+000.000000D+00*
 *                                                                     0.622954D+020.469676D+010.000000D+000.000000D+000.000000D+00*
 *                                                                     0.226542D+020.495225D+010.000000D+000.000000D+000.000000D+00*
 *                                               2   S           1.00                                                              *
+                                                                      0.897915D+010.238807D+010.000000D+000.000000D+000.000000D+00 
 *                                                                     0.368630D+010.733788D+000.000000D+000.000000D+000.000000D+00*
 *                                               3   S           1.00                                                              *
+                                                                      0.846601D+000.629027D+000.000000D+000.000000D+000.000000D+00 
 *                                               4   S           1.00                                                              *
+                                                                      0.336471D+000.314863D+000.000000D+000.000000D+000.000000D+00 
 *                                               5   S           1.00                                                              *
+                                                                      0.136477D+000.160031D+000.000000D+000.000000D+000.000000D+00 
 *                                           6-  8   P           1.00                                                              *
+                                                                      0.492004D+020.000000D+000.212648D+010.000000D+000.000000D+00 
 *                                                                     0.113468D+020.000000D+000.232794D+010.000000D+000.000000D+00*
 *                                                                     0.342740D+010.000000D+000.204857D+010.000000D+000.000000D+00*
 *                                                                     0.117855D+010.000000D+000.126073D+010.000000D+000.000000D+00*
 *                                           9- 11   P           1.00                                                              *
+                                                                      0.416422D+000.000000D+000.476823D+000.000000D+000.000000D+00 
 *                                          12- 14   P           1.00                                                              *
+                                                                      0.142608D+000.000000D+000.124917D+000.000000D+000.000000D+00 
 *                                          15- 19   D           1.00                                                              *
+                                                                      0.165400D+010.000000D+000.000000D+000.397051D+010.000000D+00 
 *                                          20- 24   D           1.00                                                              *
+                                                                      0.469000D+000.000000D+000.000000D+000.437484D+000.000000D+00 
 *                                          19- 31   F           1.00                                                              *
+                                                                      0.109300D+010.000000D+000.000000D+000.000000D+000.179825D+01 
 *---------------------------------------------------------------------------------------------------------------------------------*
 *     O      0.00000  1.41729  1.63655                                                                                            *
+                                               32   S           1.00                                                               
+                                                                      0.270324D+050.859858D+000.000000D+000.000000D+000.000000D+00 
 *                                                                     0.405239D+040.160553D+010.000000D+000.000000D+000.000000D+00*
 *                                                                     0.922327D+030.274588D+010.000000D+000.000000D+000.000000D+00*
 *                                                                     0.261241D+030.429877D+010.000000D+000.000000D+000.000000D+00*
 *                                                                     0.853546D+020.587977D+010.000000D+000.000000D+000.000000D+00*
 *                                                                     0.310350D+020.631640D+010.000000D+000.000000D+000.000000D+00*
 *                                              33   S           1.00                                                              *
+                                                                      0.122609D+020.298121D+010.000000D+000.000000D+000.000000D+00 
 *                                                                     0.499871D+010.941956D+000.000000D+000.000000D+000.000000D+00*
 *                                              34   S           1.00                                                              *
+                                                                      0.117031D+010.801929D+000.000000D+000.000000D+000.000000D+00 
 *                                              35   S           1.00                                                              *
+                                                                      0.464747D+000.401165D+000.000000D+000.000000D+000.000000D+00 
 *                                              36   S           1.00                                                              *
+                                                                      0.185045D+000.201080D+000.000000D+000.000000D+000.000000D+00 
 *                                          37- 39   P           1.00                                                              *
+                                                                      0.632750D+020.000000D+000.305720D+010.000000D+000.000000D+00 
 *                                                                     0.146270D+020.000000D+000.338448D+010.000000D+000.000000D+00*
 *                                                                     0.445012D+010.000000D+000.294743D+010.000000D+000.000000D+00*
 *                                                                     0.152758D+010.000000D+000.171183D+010.000000D+000.000000D+00*
 *                                          40- 42   P           1.00                                                              *
+                                                                      0.529351D+000.000000D+000.643606D+000.000000D+000.000000D+00 
 *                                          43- 45   P           1.00                                                              *
+                                                                      0.174784D+000.000000D+000.161090D+000.000000D+000.000000D+00 
 *                                          46- 50   D           1.00                                                              *
+                                                                      0.231400D+010.000000D+000.000000D+000.714571D+010.000000D+00 
 *                                          51- 55   D           1.00                                                              *
+                                                                      0.645000D+000.000000D+000.000000D+000.764080D+000.000000D+00 
 *                                          50- 62   F           1.00                                                              *
+                                                                      0.142800D+010.000000D+000.000000D+000.000000D+000.328165D+01 
 *---------------------------------------------------------------------------------------------------------------------------------*
 *     O      0.00000  1.41729 -1.63655                                                                                            *
+                                               63   S           1.00                                                               
+                                                                      0.270324D+050.859858D+000.000000D+000.000000D+000.000000D+00 
 *                                                                     0.405239D+040.160553D+010.000000D+000.000000D+000.000000D+00*
 *                                                                     0.922327D+030.274588D+010.000000D+000.000000D+000.000000D+00*
 *                                                                     0.261241D+030.429877D+010.000000D+000.000000D+000.000000D+00*
 *                                                                     0.853546D+020.587977D+010.000000D+000.000000D+000.000000D+00*
 *                                                                     0.310350D+020.631640D+010.000000D+000.000000D+000.000000D+00*
 *                                              64   S           1.00                                                              *
+                                                                      0.122609D+020.298121D+010.000000D+000.000000D+000.000000D+00 
 *                                                                     0.499871D+010.941956D+000.000000D+000.000000D+000.000000D+00*
 *                                              65   S           1.00                                                              *
+                                                                      0.117031D+010.801929D+000.000000D+000.000000D+000.000000D+00 
 *                                              66   S           1.00                                                              *
+                                                                      0.464747D+000.401165D+000.000000D+000.000000D+000.000000D+00 
 *                                              67   S           1.00                                                              *
+                                                                      0.185045D+000.201080D+000.000000D+000.000000D+000.000000D+00 
 *                                          68- 70   P           1.00                                                              *
+                                                                      0.632750D+020.000000D+000.305720D+010.000000D+000.000000D+00 
 *                                                                     0.146270D+020.000000D+000.338448D+010.000000D+000.000000D+00*
 *                                                                     0.445012D+010.000000D+000.294743D+010.000000D+000.000000D+00*
 *                                                                     0.152758D+010.000000D+000.171183D+010.000000D+000.000000D+00*
 *                                          71- 73   P           1.00                                                              *
+                                                                      0.529351D+000.000000D+000.643606D+000.000000D+000.000000D+00 
 *                                          74- 76   P           1.00                                                              *
+                                                                      0.174784D+000.000000D+000.161090D+000.000000D+000.000000D+00 
 *                                          77- 81   D           1.00                                                              *
+                                                                      0.231400D+010.000000D+000.000000D+000.714571D+010.000000D+00 
 *                                          82- 86   D           1.00                                                              *
+                                                                      0.645000D+000.000000D+000.000000D+000.764080D+000.000000D+00 
 *                                          81- 93   F           1.00                                                              *
+                                                                      0.142800D+010.000000D+000.000000D+000.000000D+000.328165D+01 
 *---------------------------------------------------------------------------------------------------------------------------------*
 *     O      0.00000 -2.83459  0.00000                                                                                            *
+                                               94   S           1.00                                                               
+                                                                      0.270324D+050.859858D+000.000000D+000.000000D+000.000000D+00 
 *                                                                     0.405239D+040.160553D+010.000000D+000.000000D+000.000000D+00*
 *                                                                     0.922327D+030.274588D+010.000000D+000.000000D+000.000000D+00*
 *                                                                     0.261241D+030.429877D+010.000000D+000.000000D+000.000000D+00*
 *                                                                     0.853546D+020.587977D+010.000000D+000.000000D+000.000000D+00*
 *                                                                     0.310350D+020.631640D+010.000000D+000.000000D+000.000000D+00*
 *                                              95   S           1.00                                                              *
+                                                                      0.122609D+020.298121D+010.000000D+000.000000D+000.000000D+00 
 *                                                                     0.499871D+010.941956D+000.000000D+000.000000D+000.000000D+00*
 *                                              96   S           1.00                                                              *
+                                                                      0.117031D+010.801929D+000.000000D+000.000000D+000.000000D+00 
 *                                              97   S           1.00                                                              *
+                                                                      0.464747D+000.401165D+000.000000D+000.000000D+000.000000D+00 
 *                                              98   S           1.00                                                              *
+                                                                      0.185045D+000.201080D+000.000000D+000.000000D+000.000000D+00 
 *                                          99-101   P           1.00                                                              *
+                                                                      0.632750D+020.000000D+000.305720D+010.000000D+000.000000D+00 
 *                                                                     0.146270D+020.000000D+000.338448D+010.000000D+000.000000D+00*
 *                                                                     0.445012D+010.000000D+000.294743D+010.000000D+000.000000D+00*
 *                                                                     0.152758D+010.000000D+000.171183D+010.000000D+000.000000D+00*
 *                                         102-104   P           1.00                                                              *
+                                                                      0.529351D+000.000000D+000.643606D+000.000000D+000.000000D+00 
 *                                         105-107   P           1.00                                                              *
+                                                                      0.174784D+000.000000D+000.161090D+000.000000D+000.000000D+00 
 *                                         108-112   D           1.00                                                              *
+                                                                      0.231400D+010.000000D+000.000000D+000.714571D+010.000000D+00 
 *                                         113-117   D           1.00                                                              *
+                                                                      0.645000D+000.000000D+000.000000D+000.764080D+000.000000D+00 
 *                                         112-124   F           1.00                                                              *
+                                                                      0.142800D+010.000000D+000.000000D+000.000000D+000.328165D+01 
 ***********************************************************************************************************************************
   124 basis functions,   204 primitive gaussians,   144 cartesian basis functions
    16 alpha electrons       16 beta electrons
       nuclear repulsion energy       119.1375243379 Hartrees.
 IExCor= 1009 DFT=T Ex+Corr=PBE1PBE ExCW=0 ScaHFX=  0.250000
 ScaDFX=  0.750000  0.750000  1.000000  1.000000 ScalE2=  1.000000  1.000000
 IRadAn=      5 IRanWt=     -1 IRanGd=            0 ICorTp=0 IEmpDi=  4
 NAtoms=    4 NActive=    4 NUniq=    4 SFac= 1.00D+00 NAtFMM=   60 NAOKFM=F Big=F
 Integral buffers will be    131072 words long.
 Raffenetti 2 integral format.
 Two-electron integral symmetry is turned off.
 General density basis read from cards:  (5D, 7F)
 Centers:       2      3      4
 Def2TZVP
 ****
 Centers:       1
 Def2TZVP
 ****
   124 Density fitting functions
 Density basis set in the form of general basis input (Coulomb normalization):
      1 0
 S   6 1.00       0.000000000000
      0.1973080065D+05  0.5564804653D-03
      0.2957895874D+04  0.4312093201D-02
      0.6732213360D+03  0.2236159186D-01
      0.1906824949D+03  0.8989774844D-01
      0.6229544190D+02  0.2820995148D+00
      0.2265416118D+02  0.6351674764D+00
 S   2 1.00       0.000000000000
      0.8979147743D+01  0.6323267226D+00
      0.3686300237D+01  0.3788338037D+00
 S   1 1.00       0.000000000000
      0.8466007680D+00  0.1000000000D+01
 S   1 1.00       0.000000000000
      0.3364713377D+00  0.1000000000D+01
 S   1 1.00       0.000000000000
      0.1364765367D+00  0.1000000000D+01
 P   4 1.00       0.000000000000
      0.4920038051D+02  0.1103549940D-01
      0.1134679054D+02  0.7559113321D-01
      0.3427397241D+01  0.2970549929D+00
      0.1178552513D+01  0.6942686913D+00
 P   1 1.00       0.000000000000
      0.4164220497D+00  0.1000000000D+01
 P   1 1.00       0.000000000000
      0.1426082601D+00  0.1000000000D+01
 D   1 1.00       0.000000000000
      0.1654000000D+01  0.1000000000D+01
 D   1 1.00       0.000000000000
      0.4690000000D+00  0.1000000000D+01
 F   1 1.00       0.000000000000
      0.1093000000D+01  0.1000000000D+01
 ****
      2 0
 S   6 1.00       0.000000000000
      0.2703238263D+05  0.5435345029D-03
      0.4052387139D+04  0.4212586979D-02
      0.9223272271D+03  0.2186406680D-01
      0.2612407099D+03  0.8816106172D-01
      0.8535464135D+02  0.2790314862D+00
      0.3103503524D+02  0.6401678055D+00
 S   2 1.00       0.000000000000
      0.1226086073D+02  0.6246133058D+00
      0.4998707601D+01  0.3868084824D+00
 S   1 1.00       0.000000000000
      0.1170310816D+01  0.1000000000D+01
 S   1 1.00       0.000000000000
      0.4647474099D+00  0.1000000000D+01
 S   1 1.00       0.000000000000
      0.1850453636D+00  0.1000000000D+01
 P   4 1.00       0.000000000000
      0.6327495480D+02  0.1157072397D-01
      0.1462704938D+02  0.7991398521D-01
      0.4450122346D+01  0.3080025010D+00
      0.1527579965D+01  0.6808182802D+00
 P   1 1.00       0.000000000000
      0.5293511794D+00  0.1000000000D+01
 P   1 1.00       0.000000000000
      0.1747842127D+00  0.1000000000D+01
 D   1 1.00       0.000000000000
      0.2314000000D+01  0.1000000000D+01
 D   1 1.00       0.000000000000
      0.6450000000D+00  0.1000000000D+01
 F   1 1.00       0.000000000000
      0.1428000000D+01  0.1000000000D+01
 ****
      3 0
 S   6 1.00       0.000000000000
      0.2703238263D+05  0.5435345029D-03
      0.4052387139D+04  0.4212586979D-02
      0.9223272271D+03  0.2186406680D-01
      0.2612407099D+03  0.8816106172D-01
      0.8535464135D+02  0.2790314862D+00
      0.3103503524D+02  0.6401678055D+00
 S   2 1.00       0.000000000000
      0.1226086073D+02  0.6246133058D+00
      0.4998707601D+01  0.3868084824D+00
 S   1 1.00       0.000000000000
      0.1170310816D+01  0.1000000000D+01
 S   1 1.00       0.000000000000
      0.4647474099D+00  0.1000000000D+01
 S   1 1.00       0.000000000000
      0.1850453636D+00  0.1000000000D+01
 P   4 1.00       0.000000000000
      0.6327495480D+02  0.1157072397D-01
      0.1462704938D+02  0.7991398521D-01
      0.4450122346D+01  0.3080025010D+00
      0.1527579965D+01  0.6808182802D+00
 P   1 1.00       0.000000000000
      0.5293511794D+00  0.1000000000D+01
 P   1 1.00       0.000000000000
      0.1747842127D+00  0.1000000000D+01
 D   1 1.00       0.000000000000
      0.2314000000D+01  0.1000000000D+01
 D   1 1.00       0.000000000000
      0.6450000000D+00  0.1000000000D+01
 F   1 1.00       0.000000000000
      0.1428000000D+01  0.1000000000D+01
 ****
      4 0
 S   6 1.00       0.000000000000
      0.2703238263D+05  0.5435345029D-03
      0.4052387139D+04  0.4212586979D-02
      0.9223272271D+03  0.2186406680D-01
      0.2612407099D+03  0.8816106172D-01
      0.8535464135D+02  0.2790314862D+00
      0.3103503524D+02  0.6401678055D+00
 S   2 1.00       0.000000000000
      0.1226086073D+02  0.6246133058D+00
      0.4998707601D+01  0.3868084824D+00
 S   1 1.00       0.000000000000
      0.1170310816D+01  0.1000000000D+01
 S   1 1.00       0.000000000000
      0.4647474099D+00  0.1000000000D+01
 S   1 1.00       0.000000000000
      0.1850453636D+00  0.1000000000D+01
 P   4 1.00       0.000000000000
      0.6327495480D+02  0.1157072397D-01
      0.1462704938D+02  0.7991398521D-01
      0.4450122346D+01  0.3080025010D+00
      0.1527579965D+01  0.6808182802D+00
 P   1 1.00       0.000000000000
      0.5293511794D+00  0.1000000000D+01
 P   1 1.00       0.000000000000
      0.1747842127D+00  0.1000000000D+01
 D   1 1.00       0.000000000000
      0.2314000000D+01  0.1000000000D+01
 D   1 1.00       0.000000000000
      0.6450000000D+00  0.1000000000D+01
 F   1 1.00       0.000000000000
      0.1428000000D+01  0.1000000000D+01
 ****

 Using the following non-standard input for PCM:
 EPS=80.1
 Radii=Bondi
 RSolv=1.3
 --- end of non-standard input.
 ------------------------------------------------------------------------------
 Polarizable Continuum Model (PCM)
 =================================
 Model                : C-PCM.
 Atomic radii         : Bondi.
 Polarization charges : Total charges.
 Charge compensation  : None.
 Solution method      : On-the-fly selection.
 Cavity type          : Scaled VdW (van der Waals Surface) (Alpha=1.100).
 Cavity algorithm     : GePol (No added spheres)
                        Default sphere list used, NSphG=    4.
                        Lebedev-Laikov grids with approx.  5.0 points / Ang**2.
                        Smoothing algorithm: York/Karplus (Gamma=1.0000).
                        Polarization charges: spherical gaussians, with
                                              point-specific exponents (IZeta= 3).
                        Self-potential: point-specific (ISelfS= 7).
                        Self-field    : sphere-specific E.n sum rule (ISelfD= 2).
 1st derivatives      : Analytical E(r).r(x)/FMM algorithm (CHGder, D1EAlg=3).
                        Cavity 1st derivative terms included.
 Solvent              : Water, Eps=  80.100000 Eps(inf)=   1.777849
 ------------------------------------------------------------------------------
 Spheres list:
 ISph  on   Nord     Re0    Alpha      Xe            Ye            Ze
    1   N      1    1.5500  1.100      0.000000      0.000000      0.000000
    2   O      2    1.5200  1.100      0.000000      0.750000      0.866025
    3   O      3    1.5200  1.100      0.000000      0.750000     -0.866025
    4   O      4    1.5200  1.100      0.000000     -1.500000      0.000000
 ------------------------------------------------------------------------------
 GePol: Number of generator spheres                  =       4
 GePol: Total number of spheres                      =       4
 GePol: Number of exposed spheres                    =       4 (100.00%)
 GePol: Number of points                             =     461
 GePol: Average weight of points                     =       0.16
 GePol: Minimum weight of points                     =   0.26D-05
 GePol: Maximum weight of points                     =    0.20084
 GePol: Number of points with low weight             =      12
 GePol: Fraction of low-weight points (<1% of avg)   =       2.60%
 GePol: Cavity surface area                          =     73.289 Ang**2
 GePol: Cavity volume                                =     50.773 Ang**3
 Leave Link  301 at Fri Feb 23 18:47:07 2024, MaxMem=  1048576000 cpu:               0.6 elap:               0.1
 (Enter /home/pcmt/gaussian/g16.C.01/g16/l302.exe)
 NPDir=0 NMtPBC=     1 NCelOv=     1 NCel=       1 NClECP=     1 NCelD=      1
         NCelK=      1 NCelE2=     1 NClLst=     1 CellRange=     0.0.
 One-electron integrals computed using PRISM.
 NBasis=   124 RedAO= T EigKep=  6.78D-04  NBF=   124
 NBsUse=   124 1.00D-06 EigRej= -1.00D+00 NBFU=   124
 Precomputing XC quadrature grid using
 IXCGrd= 4 IRadAn=           5 IRanWt=          -1 IRanGd=           0 AccXCQ= 0.00D+00.
 Generated NRdTot=       0 NPtTot=           0 NUsed=           0 NTot=          32
 NSgBfM=   143   143   143   143   143 MxSgAt=     4 MxSgA2=     4.
 Leave Link  302 at Fri Feb 23 18:47:08 2024, MaxMem=  1048576000 cpu:               1.1 elap:               0.2
 (Enter /home/pcmt/gaussian/g16.C.01/g16/l303.exe)
 DipDrv:  MaxL=1.
 Leave Link  303 at Fri Feb 23 18:47:08 2024, MaxMem=  1048576000 cpu:               0.2 elap:               0.1
 (Enter /home/pcmt/gaussian/g16.C.01/g16/l401.exe)
 ExpMin= 1.36D-01 ExpMax= 2.70D+04 ExpMxC= 9.22D+02 IAcc=3 IRadAn=         5 AccDes= 0.00D+00
 Harris functional with IExCor= 1009 and IRadAn=       5 diagonalized for initial guess.
 HarFok:  IExCor= 1009 AccDes= 0.00D+00 IRadAn=         5 IDoV= 1 UseB2=F ITyADJ=14
 ICtDFT=  3500011 ScaDFX=  1.000000  1.000000  1.000000  1.000000
 FoFCou: FMM=F IPFlag=           0 FMFlag=      100000 FMFlg1=           0
         NFxFlg=           0 DoJE=T BraDBF=F KetDBF=T FulRan=T
         wScrn=  0.000000 ICntrl=       500 IOpCl=  0 I1Cent=   200000004 NGrid=           0
         NMat0=    1 NMatS0=      1 NMatT0=    0 NMatD0=    1 NMtDS0=    0 NMtDT0=    0
 Symmetry not used in FoFCou.
 Harris En= -280.284257759830    
 JPrj=0 DoOrth=F DoCkMO=F.
 Leave Link  401 at Fri Feb 23 18:47:08 2024, MaxMem=  1048576000 cpu:               3.3 elap:               0.5
 (Enter /home/pcmt/gaussian/g16.C.01/g16/l502.exe)
 Keep R1 ints in memory in canonical form, NReq=37811993.
 FoFCou: FMM=F IPFlag=           0 FMFlag=           0 FMFlg1=           0
         NFxFlg=           0 DoJE=F BraDBF=F KetDBF=F FulRan=T
         wScrn=  0.000000 ICntrl=       600 IOpCl=  0 I1Cent=           0 NGrid=           0
         NMat0=    1 NMatS0=   7750 NMatT0=    0 NMatD0=    1 NMtDS0=    0 NMtDT0=    0
 Symmetry not used in FoFCou.
 Two-electron integral symmetry not used.
 Closed shell SCF:
 Using DIIS extrapolation, IDIIS=  1040.
 NGot=  1048576000 LenX=  1018497157 LenY=  1018475980
 Requested convergence on RMS density matrix=1.00D-08 within 100 cycles.
 Requested convergence on MAX density matrix=1.00D-06.
 Requested convergence on             energy=1.00D-06.
 No special actions if energy rises.

 Cycle   1  Pass 1  IDiag  1:
 Inv3:  Mode=1 IEnd=      637563.
 Iteration    1 A*A^-1 deviation from unit magnitude is 3.33D-15 for    431.
 Iteration    1 A*A^-1 deviation from orthogonality  is 1.52D-15 for    455    355.
 Iteration    1 A^-1*A deviation from unit magnitude is 3.33D-15 for    431.
 Iteration    1 A^-1*A deviation from orthogonality  is 9.12D-16 for    420    312.
 E= -279.943546108163    
 DIIS: error= 5.67D-02 at cycle   1 NSaved=   1.
 NSaved= 1 IEnMin= 1 EnMin= -279.943546108163     IErMin= 1 ErrMin= 5.67D-02
 ErrMax= 5.67D-02  0.00D+00 EMaxC= 1.00D-01 BMatC= 3.38D-01 BMatP= 3.38D-01
 IDIUse=3 WtCom= 4.33D-01 WtEn= 5.67D-01
 Coeff-Com:  0.100D+01
 Coeff-En:   0.100D+01
 Coeff:      0.100D+01
 Gap=     0.058 Goal=   None    Shift=    0.000
 GapD=    0.058 DampG=0.500 DampE=0.500 DampFc=0.2500 IDamp=-1.
 Damping current iteration by 2.50D-01
 RMSDP=6.42D-03 MaxDP=1.19D-01              OVMax= 2.92D-01

 Cycle   2  Pass 1  IDiag  1:
 E= -280.024159459367     Delta-E=       -0.080613351204 Rises=F Damp=T
 DIIS: error= 2.23D-02 at cycle   2 NSaved=   2.
 NSaved= 2 IEnMin= 2 EnMin= -280.024159459367     IErMin= 2 ErrMin= 2.23D-02
 ErrMax= 2.23D-02  0.00D+00 EMaxC= 1.00D-01 BMatC= 5.25D-02 BMatP= 3.38D-01
 IDIUse=3 WtCom= 7.77D-01 WtEn= 2.23D-01
 Coeff-Com: -0.534D+00 0.153D+01
 Coeff-En:   0.000D+00 0.100D+01
 Coeff:     -0.415D+00 0.141D+01
 Gap=     0.188 Goal=   None    Shift=    0.000
 RMSDP=1.73D-03 MaxDP=3.21D-02 DE=-8.06D-02 OVMax= 1.75D-01

 Cycle   3  Pass 1  IDiag  1:
 E= -280.146812914175     Delta-E=       -0.122653454808 Rises=F Damp=F
 DIIS: error= 1.33D-02 at cycle   3 NSaved=   3.
 NSaved= 3 IEnMin= 3 EnMin= -280.146812914175     IErMin= 3 ErrMin= 1.33D-02
 ErrMax= 1.33D-02  0.00D+00 EMaxC= 1.00D-01 BMatC= 1.18D-02 BMatP= 5.25D-02
 IDIUse=3 WtCom= 8.67D-01 WtEn= 1.33D-01
 Coeff-Com: -0.161D+00 0.603D+00 0.557D+00
 Coeff-En:   0.000D+00 0.000D+00 0.100D+01
 Coeff:     -0.139D+00 0.523D+00 0.616D+00
 Gap=     0.217 Goal=   None    Shift=    0.000
 RMSDP=1.05D-03 MaxDP=1.98D-02 DE=-1.23D-01 OVMax= 3.95D-02

 Cycle   4  Pass 1  IDiag  1:
 E= -280.151131423077     Delta-E=       -0.004318508902 Rises=F Damp=F
 DIIS: error= 6.35D-03 at cycle   4 NSaved=   4.
 NSaved= 4 IEnMin= 4 EnMin= -280.151131423077     IErMin= 4 ErrMin= 6.35D-03
 ErrMax= 6.35D-03  0.00D+00 EMaxC= 1.00D-01 BMatC= 5.06D-03 BMatP= 1.18D-02
 IDIUse=3 WtCom= 9.37D-01 WtEn= 6.35D-02
 Coeff-Com:  0.187D-01 0.465D-01 0.416D+00 0.519D+00
 Coeff-En:   0.000D+00 0.000D+00 0.334D+00 0.666D+00
 Coeff:      0.175D-01 0.435D-01 0.411D+00 0.528D+00
 Gap=     0.211 Goal=   None    Shift=    0.000
 RMSDP=4.01D-04 MaxDP=8.64D-03 DE=-4.32D-03 OVMax= 2.73D-02

 Cycle   5  Pass 1  IDiag  1:
 E= -280.154623146610     Delta-E=       -0.003491723533 Rises=F Damp=F
 DIIS: error= 2.15D-03 at cycle   5 NSaved=   5.
 NSaved= 5 IEnMin= 5 EnMin= -280.154623146610     IErMin= 5 ErrMin= 2.15D-03
 ErrMax= 2.15D-03  0.00D+00 EMaxC= 1.00D-01 BMatC= 3.17D-04 BMatP= 5.06D-03
 IDIUse=3 WtCom= 9.79D-01 WtEn= 2.15D-02
 Coeff-Com:  0.245D-01-0.326D-01 0.164D+00 0.295D+00 0.549D+00
 Coeff-En:   0.000D+00 0.000D+00 0.000D+00 0.000D+00 0.100D+01
 Coeff:      0.240D-01-0.319D-01 0.161D+00 0.288D+00 0.559D+00
 Gap=     0.212 Goal=   None    Shift=    0.000
 RMSDP=8.60D-05 MaxDP=2.30D-03 DE=-3.49D-03 OVMax= 4.01D-03

 Cycle   6  Pass 1  IDiag  1:
 E= -280.154849046490     Delta-E=       -0.000225899880 Rises=F Damp=F
 DIIS: error= 1.56D-04 at cycle   6 NSaved=   6.
 NSaved= 6 IEnMin= 6 EnMin= -280.154849046490     IErMin= 6 ErrMin= 1.56D-04
 ErrMax= 1.56D-04  0.00D+00 EMaxC= 1.00D-01 BMatC= 1.71D-06 BMatP= 3.17D-04
 IDIUse=3 WtCom= 9.98D-01 WtEn= 1.56D-03
 Coeff-Com:  0.309D-02-0.601D-02 0.194D-01 0.389D-01 0.115D+00 0.830D+00
 Coeff-En:   0.000D+00 0.000D+00 0.000D+00 0.000D+00 0.000D+00 0.100D+01
 Coeff:      0.309D-02-0.600D-02 0.193D-01 0.388D-01 0.115D+00 0.830D+00
 Gap=     0.212 Goal=   None    Shift=    0.000
 RMSDP=9.39D-06 MaxDP=1.87D-04 DE=-2.26D-04 OVMax= 7.27D-04

 Cycle   7  Pass 1  IDiag  1:
 E= -280.154850557233     Delta-E=       -0.000001510743 Rises=F Damp=F
 DIIS: error= 2.42D-05 at cycle   7 NSaved=   7.
 NSaved= 7 IEnMin= 7 EnMin= -280.154850557233     IErMin= 7 ErrMin= 2.42D-05
 ErrMax= 2.42D-05  0.00D+00 EMaxC= 1.00D-01 BMatC= 5.49D-08 BMatP= 1.71D-06
 IDIUse=1 WtCom= 1.00D+00 WtEn= 0.00D+00
 Coeff-Com: -0.101D-02 0.120D-02-0.584D-02-0.907D-02-0.223D-01 0.324D-01
 Coeff-Com:  0.100D+01
 Coeff:     -0.101D-02 0.120D-02-0.584D-02-0.907D-02-0.223D-01 0.324D-01
 Coeff:      0.100D+01
 Gap=     0.212 Goal=   None    Shift=    0.000
 RMSDP=3.10D-06 MaxDP=5.54D-05 DE=-1.51D-06 OVMax= 2.15D-04

 Cycle   8  Pass 1  IDiag  1:
 E= -280.154850650773     Delta-E=       -0.000000093540 Rises=F Damp=F
 DIIS: error= 4.13D-06 at cycle   8 NSaved=   8.
 NSaved= 8 IEnMin= 8 EnMin= -280.154850650773     IErMin= 8 ErrMin= 4.13D-06
 ErrMax= 4.13D-06  0.00D+00 EMaxC= 1.00D-01 BMatC= 1.87D-09 BMatP= 5.49D-08
 IDIUse=1 WtCom= 1.00D+00 WtEn= 0.00D+00
 Coeff-Com: -0.129D-04 0.340D-04-0.634D-03-0.994D-03-0.400D-02-0.222D-01
 Coeff-Com: -0.261D-01 0.105D+01
 Coeff:     -0.129D-04 0.340D-04-0.634D-03-0.994D-03-0.400D-02-0.222D-01
 Coeff:     -0.261D-01 0.105D+01
 Gap=     0.212 Goal=   None    Shift=    0.000
 RMSDP=6.21D-07 MaxDP=9.31D-06 DE=-9.35D-08 OVMax= 4.98D-05

 Cycle   9  Pass 1  IDiag  1:
 E= -280.154850654120     Delta-E=       -0.000000003347 Rises=F Damp=F
 DIIS: error= 6.21D-07 at cycle   9 NSaved=   9.
 NSaved= 9 IEnMin= 9 EnMin= -280.154850654120     IErMin= 9 ErrMin= 6.21D-07
 ErrMax= 6.21D-07  0.00D+00 EMaxC= 1.00D-01 BMatC= 3.65D-11 BMatP= 1.87D-09
 IDIUse=1 WtCom= 1.00D+00 WtEn= 0.00D+00
 Coeff-Com:  0.214D-04-0.228D-04 0.292D-04 0.458D-04-0.823D-04-0.425D-02
 Coeff-Com: -0.349D-01 0.183D+00 0.856D+00
 Coeff:      0.214D-04-0.228D-04 0.292D-04 0.458D-04-0.823D-04-0.425D-02
 Coeff:     -0.349D-01 0.183D+00 0.856D+00
 Gap=     0.212 Goal=   None    Shift=    0.000
 RMSDP=7.76D-08 MaxDP=1.28D-06 DE=-3.35D-09 OVMax= 5.44D-06

 Cycle  10  Pass 1  IDiag  1:
 E= -280.154850654168     Delta-E=       -0.000000000048 Rises=F Damp=F
 DIIS: error= 7.42D-08 at cycle  10 NSaved=  10.
 NSaved=10 IEnMin=10 EnMin= -280.154850654168     IErMin=10 ErrMin= 7.42D-08
 ErrMax= 7.42D-08  0.00D+00 EMaxC= 1.00D-01 BMatC= 8.32D-13 BMatP= 3.65D-11
 IDIUse=1 WtCom= 1.00D+00 WtEn= 0.00D+00
 Coeff-Com:  0.159D-05-0.104D-05 0.208D-04 0.356D-04 0.977D-04 0.155D-03
 Coeff-Com: -0.346D-02-0.628D-02 0.902D-01 0.919D+00
 Coeff:      0.159D-05-0.104D-05 0.208D-04 0.356D-04 0.977D-04 0.155D-03
 Coeff:     -0.346D-02-0.628D-02 0.902D-01 0.919D+00
 Gap=     0.212 Goal=   None    Shift=    0.000
 RMSDP=1.05D-08 MaxDP=2.82D-07 DE=-4.79D-11 OVMax= 4.09D-07

 Cycle  11  Pass 1  IDiag  1:
 E= -280.154850654168     Delta-E=        0.000000000001 Rises=F Damp=F
 DIIS: error= 1.85D-08 at cycle  11 NSaved=  11.
 NSaved=11 IEnMin=10 EnMin= -280.154850654168     IErMin=11 ErrMin= 1.85D-08
 ErrMax= 1.85D-08  0.00D+00 EMaxC= 1.00D-01 BMatC= 3.33D-14 BMatP= 8.32D-13
 IDIUse=1 WtCom= 1.00D+00 WtEn= 0.00D+00
 Coeff-Com: -0.358D-06 0.469D-06 0.180D-05 0.437D-05 0.132D-04 0.135D-03
 Coeff-Com:  0.397D-03-0.556D-02-0.806D-02 0.139D+00 0.874D+00
 Coeff:     -0.358D-06 0.469D-06 0.180D-05 0.437D-05 0.132D-04 0.135D-03
 Coeff:      0.397D-03-0.556D-02-0.806D-02 0.139D+00 0.874D+00
 Gap=     0.212 Goal=   None    Shift=    0.000
 RMSDP=2.16D-09 MaxDP=6.48D-08 DE= 7.96D-13 OVMax= 7.23D-08

 Error on total polarization charges =  0.02484
 SCF Done:  E(RPBE1PBE) =  -280.154850654     A.U. after   11 cycles
            NFock= 11  Conv=0.22D-08     -V/T= 2.0007
 KE= 2.799612529068D+02 PE=-9.089902024051D+02 EE= 2.297365745063D+02
 Leave Link  502 at Fri Feb 23 18:47:14 2024, MaxMem=  1048576000 cpu:              44.8 elap:               5.6
 (Enter /home/pcmt/gaussian/g16.C.01/g16/l508.exe)
 QCSCF skips out because SCF is already converged.
 Leave Link  508 at Fri Feb 23 18:47:14 2024, MaxMem=  1048576000 cpu:               0.0 elap:               0.0
 (Enter /home/pcmt/gaussian/g16.C.01/g16/l601.exe)
 Copying SCF densities to generalized density rwf, IOpCl= 0 IROHF=0.

 **********************************************************************

            Population analysis using the SCF Density.

 **********************************************************************

 Alpha  occ. eigenvalues --  -19.19510 -19.18541 -19.18536 -14.61356  -1.34665
 Alpha  occ. eigenvalues --   -1.04846  -0.96095  -0.62403  -0.57562  -0.54298
 Alpha  occ. eigenvalues --   -0.51228  -0.35465  -0.29577  -0.29319  -0.29151
 Alpha  occ. eigenvalues --   -0.21556
 Alpha virt. eigenvalues --   -0.00381   0.05056   0.22174   0.27872   0.31329
 Alpha virt. eigenvalues --    0.34642   0.40268   0.42237   0.45760   0.47207
 Alpha virt. eigenvalues --    0.49511   0.49897   0.54218   0.55236   0.58041
 Alpha virt. eigenvalues --    0.59726   0.62978   0.81065   0.88334   0.91342
 Alpha virt. eigenvalues --    1.03038   1.05512   1.27779   1.35371   1.40645
 Alpha virt. eigenvalues --    1.42722   1.52839   1.56823   1.62313   1.68535
 Alpha virt. eigenvalues --    1.77077   1.80992   1.88832   1.89583   1.99038
 Alpha virt. eigenvalues --    2.06408   2.09174   2.19302   2.19922   2.21571
 Alpha virt. eigenvalues --    2.25889   2.41734   2.45498   2.49879   2.68164
 Alpha virt. eigenvalues --    2.73734   2.82317   2.85097   2.86103   2.87763
 Alpha virt. eigenvalues --    2.98134   3.00059   3.10386   3.67228   3.81192
 Alpha virt. eigenvalues --    3.81419   3.97147   3.99330   4.12822   4.28085
 Alpha virt. eigenvalues --    4.42592   4.59793   4.65655   4.67936   4.74495
 Alpha virt. eigenvalues --    4.81574   5.07442   5.11662   5.13461   5.15113
 Alpha virt. eigenvalues --    5.20040   5.20497   5.24546   5.32212   5.34082
 Alpha virt. eigenvalues --    5.37532   5.39448   5.46184   5.50103   5.52816
 Alpha virt. eigenvalues --    5.72085   6.09887   6.16951   6.22089   6.28116
 Alpha virt. eigenvalues --    6.32312   6.34237   6.37471   6.44213   6.46153
 Alpha virt. eigenvalues --    6.63679   6.67834   6.68060   6.81474   6.86613
 Alpha virt. eigenvalues --    6.93082   6.94237   7.03982   7.14667   7.26847
 Alpha virt. eigenvalues --    7.29665   7.37164   7.63759   7.73366  32.69200
 Alpha virt. eigenvalues --   43.64782  43.89486  44.18473
     Molecular Orbital Coefficients:
                           1         2         3         4         5
                           O         O         O         O         O
     Eigenvalues --   -19.19510 -19.18541 -19.18536 -14.61356  -1.34665
   1 1   N  1S         -0.00003  -0.00000   0.00003   0.44870  -0.07523
   2        2S          0.00017   0.00000  -0.00008   0.62685  -0.16961
   3        3S         -0.00252   0.00000  -0.00234   0.03171   0.27276
   4        4S          0.00562  -0.00000   0.01878  -0.00303   0.18472
   5        5S         -0.00284   0.00000  -0.01052   0.00576   0.01435
   6        6PX        -0.00000   0.00000  -0.00000  -0.00000  -0.00000
   7        6PY         0.00049  -0.00000   0.00009   0.00108   0.12359
   8        6PZ        -0.00000   0.00026   0.00000   0.00000  -0.00000
   9        7PX         0.00000  -0.00000  -0.00000   0.00000   0.00000
  10        7PY        -0.00272  -0.00000   0.01072   0.00976   0.03760
  11        7PZ         0.00000   0.01375   0.00000  -0.00000  -0.00000
  12        8PX        -0.00000  -0.00000  -0.00000   0.00000  -0.00000
  13        8PY         0.00788   0.00000  -0.00558  -0.00146  -0.00124
  14        8PZ        -0.00000  -0.00701  -0.00000  -0.00000  -0.00000
  15        9D 0        0.00011  -0.00000   0.00028   0.00053   0.00559
  16        9D+1        0.00000   0.00000  -0.00000  -0.00000  -0.00000
  17        9D-1        0.00000   0.00040   0.00000  -0.00000  -0.00000
  18        9D+2        0.00011   0.00000  -0.00018  -0.00109  -0.00920
  19        9D-2        0.00000  -0.00000   0.00000  -0.00000  -0.00000
  20       10D 0       -0.00212  -0.00000   0.00144   0.00402  -0.00252
  21       10D+1       -0.00000   0.00000  -0.00000   0.00000  -0.00000
  22       10D-1        0.00000   0.00686   0.00000  -0.00000  -0.00000
  23       10D+2       -0.00270   0.00000  -0.00252   0.00055  -0.00513
  24       10D-2       -0.00000  -0.00000  -0.00000   0.00000   0.00000
  25       11F 0        0.00000   0.00020   0.00000   0.00000  -0.00000
  26       11F+1        0.00000   0.00000  -0.00000   0.00000   0.00000
  27       11F-1        0.00022  -0.00000   0.00004   0.00128   0.00535
  28       11F+2       -0.00000  -0.00027  -0.00000   0.00000   0.00000
  29       11F-2       -0.00000   0.00000  -0.00000  -0.00000  -0.00000
  30       11F+3       -0.00000  -0.00000  -0.00000  -0.00000  -0.00000
  31       11F-3        0.00037   0.00000  -0.00026  -0.00053  -0.00154
  32 2   O  1S         -0.00026   0.30782   0.30781  -0.00006  -0.05062
  33        2S         -0.00036   0.45215   0.45224  -0.00017  -0.11853
  34        3S         -0.00010   0.02628   0.02554   0.00231   0.16197
  35        4S          0.00017  -0.02625  -0.02320  -0.00759   0.22261
  36        5S         -0.00298   0.01223   0.00996  -0.00172   0.05026
  37        6PX         0.00000   0.00000   0.00000   0.00000   0.00000
  38        6PY         0.00004  -0.00147  -0.00143  -0.00041  -0.05819
  39        6PZ        -0.00005  -0.00146  -0.00134  -0.00033  -0.08985
  40        7PX        -0.00000  -0.00000   0.00000  -0.00000  -0.00000
  41        7PY        -0.00051   0.00634   0.00463   0.00488  -0.05082
  42        7PZ         0.00070   0.00645   0.00622   0.00428  -0.07385
  43        8PX         0.00000   0.00000   0.00000  -0.00000   0.00000
  44        8PY        -0.00045  -0.00243  -0.00100   0.00047  -0.00402
  45        8PZ         0.00097  -0.00186  -0.00173   0.00002  -0.00607
  46        9D 0        0.00004   0.00019   0.00007  -0.00007   0.00450
  47        9D+1        0.00000   0.00000   0.00000   0.00000  -0.00000
  48        9D-1       -0.00002   0.00032   0.00032  -0.00004   0.00685
  49        9D+2        0.00003  -0.00006  -0.00013  -0.00001  -0.00233
  50        9D-2        0.00000   0.00000   0.00000   0.00000  -0.00000
  51       10D 0       -0.00051  -0.00092  -0.00113  -0.00048   0.01011
  52       10D+1       -0.00000  -0.00000  -0.00000  -0.00000   0.00000
  53       10D-1        0.00010  -0.00258  -0.00210  -0.00284   0.01929
  54       10D+2       -0.00026   0.00098   0.00079   0.00154  -0.00634
  55       10D-2       -0.00000  -0.00000  -0.00000  -0.00000   0.00000
  56       11F 0        0.00004   0.00001  -0.00001  -0.00022  -0.00060
  57       11F+1        0.00000  -0.00000  -0.00000   0.00000   0.00000
  58       11F-1        0.00001   0.00020   0.00034   0.00060  -0.00417
  59       11F+2        0.00005  -0.00030  -0.00011  -0.00066   0.00241
  60       11F-2       -0.00000  -0.00000   0.00000   0.00000   0.00000
  61       11F+3        0.00000   0.00000  -0.00000  -0.00000   0.00000
  62       11F-3       -0.00003  -0.00005  -0.00008  -0.00025   0.00063
  63 3   O  1S         -0.00026  -0.30782   0.30781  -0.00006  -0.05062
  64        2S         -0.00036  -0.45215   0.45224  -0.00017  -0.11853
  65        3S         -0.00010  -0.02628   0.02554   0.00231   0.16197
  66        4S          0.00017   0.02625  -0.02320  -0.00759   0.22261
  67        5S         -0.00298  -0.01223   0.00996  -0.00172   0.05026
  68        6PX         0.00000   0.00000   0.00000   0.00000   0.00000
  69        6PY         0.00004   0.00147  -0.00143  -0.00041  -0.05819
  70        6PZ         0.00005  -0.00146   0.00134   0.00033   0.08985
  71        7PX        -0.00000   0.00000  -0.00000  -0.00000  -0.00000
  72        7PY        -0.00051  -0.00634   0.00463   0.00488  -0.05082
  73        7PZ        -0.00070   0.00645  -0.00622  -0.00428   0.07385
  74        8PX         0.00000   0.00000   0.00000  -0.00000   0.00000
  75        8PY        -0.00045   0.00243  -0.00100   0.00047  -0.00402
  76        8PZ        -0.00097  -0.00186   0.00173  -0.00002   0.00607
  77        9D 0        0.00004  -0.00019   0.00007  -0.00007   0.00450
  78        9D+1        0.00000   0.00000  -0.00000   0.00000   0.00000
  79        9D-1        0.00002   0.00032  -0.00032   0.00004  -0.00685
  80        9D+2        0.00003   0.00006  -0.00013  -0.00001  -0.00233
  81        9D-2       -0.00000   0.00000   0.00000   0.00000   0.00000
  82       10D 0       -0.00051   0.00092  -0.00113  -0.00048   0.01011
  83       10D+1       -0.00000   0.00000  -0.00000  -0.00000  -0.00000
  84       10D-1       -0.00010  -0.00258   0.00210   0.00284  -0.01929
  85       10D+2       -0.00026  -0.00098   0.00079   0.00154  -0.00634
  86       10D-2        0.00000  -0.00000  -0.00000   0.00000   0.00000
  87       11F 0       -0.00004   0.00001   0.00001   0.00022   0.00060
  88       11F+1       -0.00000   0.00000  -0.00000  -0.00000  -0.00000
  89       11F-1        0.00001  -0.00020   0.00034   0.00060  -0.00417
  90       11F+2       -0.00005  -0.00030   0.00011   0.00066  -0.00241
  91       11F-2        0.00000  -0.00000  -0.00000  -0.00000   0.00000
  92       11F+3        0.00000  -0.00000  -0.00000  -0.00000   0.00000
  93       11F-3       -0.00003   0.00005  -0.00008  -0.00025   0.00063
  94 4   O  1S          0.43542  -0.00000   0.00036  -0.00002  -0.00775
  95        2S          0.63987  -0.00000   0.00055   0.00009  -0.01809
  96        3S          0.03318   0.00000  -0.00031  -0.00144   0.02502
  97        4S         -0.02216  -0.00000   0.00112   0.00395   0.03278
  98        5S          0.01363   0.00000  -0.00223  -0.00182   0.00628
  99        6PX         0.00000   0.00000   0.00000   0.00000   0.00000
 100        6PY         0.00179   0.00000  -0.00001  -0.00020   0.01543
 101        6PZ        -0.00000  -0.00003  -0.00000   0.00000   0.00000
 102        7PX        -0.00000   0.00000  -0.00000   0.00000  -0.00000
 103        7PY        -0.00420  -0.00000   0.00028   0.00257   0.01214
 104        7PZ         0.00000   0.00026   0.00000  -0.00000  -0.00000
 105        8PX         0.00000   0.00000   0.00000  -0.00000   0.00000
 106        8PY         0.00387   0.00000  -0.00085  -0.00024   0.00065
 107        8PZ         0.00000   0.00115   0.00000   0.00000   0.00000
 108        9D 0       -0.00016  -0.00000   0.00007   0.00004  -0.00063
 109        9D+1        0.00000  -0.00000  -0.00000   0.00000   0.00000
 110        9D-1       -0.00000  -0.00009  -0.00000   0.00000   0.00000
 111        9D+2       -0.00024   0.00000  -0.00007  -0.00000  -0.00096
 112        9D-2       -0.00000   0.00000   0.00000   0.00000  -0.00000
 113       10D 0        0.00086   0.00000  -0.00028  -0.00068  -0.00122
 114       10D+1       -0.00000   0.00000   0.00000  -0.00000  -0.00000
 115       10D-1        0.00000   0.00052   0.00000  -0.00000  -0.00000
 116       10D+2        0.00139  -0.00000   0.00009  -0.00088  -0.00255
 117       10D-2       -0.00000   0.00000   0.00000  -0.00000   0.00000
 118       11F 0       -0.00000  -0.00006  -0.00000  -0.00000   0.00000
 119       11F+1        0.00000   0.00000   0.00000  -0.00000   0.00000
 120       11F-1        0.00028   0.00000  -0.00013  -0.00003  -0.00025
 121       11F+2       -0.00000  -0.00008  -0.00000   0.00000   0.00000
 122       11F-2        0.00000   0.00000   0.00000   0.00000  -0.00000
 123       11F+3        0.00000   0.00000   0.00000  -0.00000   0.00000
 124       11F-3        0.00034  -0.00000   0.00001   0.00005  -0.00050
                           6         7         8         9        10
                           O         O         O         O         O
     Eigenvalues --    -1.04846  -0.96095  -0.62403  -0.57562  -0.54298
   1 1   N  1S         -0.00000  -0.02374  -0.06318  -0.00000   0.00066
   2        2S         -0.00000  -0.05403  -0.14580  -0.00000   0.00085
   3        3S          0.00000   0.08078   0.23881  -0.00000   0.00315
   4        4S         -0.00000   0.13410   0.35610   0.00000  -0.01543
   5        5S         -0.00000   0.03014   0.05626  -0.00000  -0.10852
   6        6PX        -0.00000  -0.00000   0.00000   0.34174   0.00000
   7        6PY         0.00000  -0.16309  -0.08363  -0.00000   0.25938
   8        6PZ         0.25365  -0.00000  -0.00000   0.00000  -0.00000
   9        7PX         0.00000   0.00000  -0.00000   0.28502   0.00000
  10        7PY        -0.00000  -0.11380  -0.06393   0.00000   0.20489
  11        7PZ         0.11291   0.00000  -0.00000  -0.00000  -0.00000
  12        8PX        -0.00000  -0.00000   0.00000   0.09441   0.00000
  13        8PY         0.00000  -0.00689  -0.02003  -0.00000  -0.00061
  14        8PZ         0.00841   0.00000   0.00000  -0.00000   0.00000
  15        9D 0       -0.00000  -0.00244   0.00516   0.00000  -0.00657
  16        9D+1       -0.00000   0.00000  -0.00000  -0.00000   0.00000
  17        9D-1        0.02207  -0.00000  -0.00000   0.00000  -0.00000
  18        9D+2       -0.00000  -0.00161   0.00235  -0.00000  -0.00926
  19        9D-2       -0.00000  -0.00000   0.00000   0.01242   0.00000
  20       10D 0        0.00000  -0.00642   0.00697  -0.00000  -0.01994
  21       10D+1       -0.00000   0.00000   0.00000  -0.00000  -0.00000
  22       10D-1        0.00497   0.00000   0.00000  -0.00000   0.00000
  23       10D+2        0.00000  -0.00971   0.00618  -0.00000  -0.01380
  24       10D-2       -0.00000   0.00000  -0.00000   0.01938  -0.00000
  25       11F 0       -0.00004  -0.00000  -0.00000  -0.00000  -0.00000
  26       11F+1       -0.00000   0.00000  -0.00000   0.00396  -0.00000
  27       11F-1       -0.00000   0.00250   0.00457  -0.00000  -0.00134
  28       11F+2       -0.00376  -0.00000  -0.00000   0.00000  -0.00000
  29       11F-2       -0.00000   0.00000   0.00000  -0.00000   0.00000
  30       11F+3        0.00000  -0.00000   0.00000  -0.00624   0.00000
  31       11F-3        0.00000   0.00389   0.00093   0.00000  -0.00479
  32 2   O  1S         -0.06621   0.01540   0.04000   0.00000   0.02878
  33        2S         -0.15632   0.03653   0.09541   0.00000   0.06857
  34        3S          0.22046  -0.05277  -0.13977  -0.00000  -0.10024
  35        4S          0.31640  -0.07389  -0.21846  -0.00000  -0.16133
  36        5S          0.11610  -0.03313  -0.15129   0.00000  -0.11094
  37        6PX        -0.00000   0.00000   0.00000   0.20646   0.00000
  38        6PY        -0.08245  -0.01112  -0.13569  -0.00000  -0.00394
  39        6PZ        -0.04839   0.02920  -0.05862   0.00000  -0.22572
  40        7PX         0.00000  -0.00000   0.00000   0.17160   0.00000
  41        7PY        -0.07434  -0.00827  -0.09879  -0.00000   0.00759
  42        7PZ        -0.05002   0.02527  -0.03094  -0.00000  -0.16734
  43        8PX         0.00000   0.00000  -0.00000   0.07316   0.00000
  44        8PY        -0.01146  -0.00250  -0.04918  -0.00000  -0.00400
  45        8PZ        -0.00654   0.00552  -0.02116  -0.00000  -0.09594
  46        9D 0       -0.00048  -0.00238  -0.00068   0.00000   0.00783
  47        9D+1        0.00000  -0.00000  -0.00000  -0.00740   0.00000
  48        9D-1        0.00696  -0.00088   0.00469   0.00000   0.00455
  49        9D+2       -0.00370  -0.00051  -0.00311   0.00000   0.00024
  50        9D-2        0.00000  -0.00000  -0.00000  -0.00611   0.00000
  51       10D 0        0.00068  -0.00620  -0.00409  -0.00000   0.01517
  52       10D+1       -0.00000   0.00000  -0.00000  -0.01983  -0.00000
  53       10D-1        0.02009  -0.00200   0.00933   0.00000   0.00704
  54       10D+2       -0.01005  -0.00182  -0.00559  -0.00000   0.00250
  55       10D-2       -0.00000   0.00000   0.00000  -0.01516  -0.00000
  56       11F 0        0.00234   0.00088   0.00176   0.00000  -0.00207
  57       11F+1        0.00000  -0.00000  -0.00000   0.00303   0.00000
  58       11F-1       -0.00217   0.00140  -0.00096  -0.00000  -0.00414
  59       11F+2        0.00345   0.00008   0.00171  -0.00000   0.00005
  60       11F-2        0.00000  -0.00000   0.00000   0.00514   0.00000
  61       11F+3       -0.00000   0.00000   0.00000  -0.00226  -0.00000
  62       11F-3        0.00130   0.00034   0.00060  -0.00000  -0.00062
  63 3   O  1S          0.06621   0.01540   0.04000  -0.00000   0.02878
  64        2S          0.15632   0.03653   0.09541  -0.00000   0.06857
  65        3S         -0.22046  -0.05277  -0.13977   0.00000  -0.10024
  66        4S         -0.31640  -0.07389  -0.21846  -0.00000  -0.16133
  67        5S         -0.11610  -0.03313  -0.15129  -0.00000  -0.11094
  68        6PX         0.00000   0.00000  -0.00000   0.20646   0.00000
  69        6PY         0.08245  -0.01112  -0.13569  -0.00000  -0.00394
  70        6PZ        -0.04839  -0.02920   0.05862  -0.00000   0.22572
  71        7PX        -0.00000  -0.00000   0.00000   0.17160   0.00000
  72        7PY         0.07434  -0.00827  -0.09879   0.00000   0.00759
  73        7PZ        -0.05002  -0.02527   0.03094  -0.00000   0.16734
  74        8PX        -0.00000   0.00000  -0.00000   0.07316  -0.00000
  75        8PY         0.01146  -0.00250  -0.04918   0.00000  -0.00400
  76        8PZ        -0.00654  -0.00552   0.02116  -0.00000   0.09594
  77        9D 0        0.00048  -0.00238  -0.00068   0.00000   0.00783
  78        9D+1        0.00000  -0.00000  -0.00000   0.00740   0.00000
  79        9D-1        0.00696   0.00088  -0.00469   0.00000  -0.00455
  80        9D+2        0.00370  -0.00051  -0.00311   0.00000   0.00024
  81        9D-2       -0.00000   0.00000   0.00000  -0.00611   0.00000
  82       10D 0       -0.00068  -0.00620  -0.00409  -0.00000   0.01517
  83       10D+1       -0.00000   0.00000   0.00000   0.01983   0.00000
  84       10D-1        0.02009   0.00200  -0.00933   0.00000  -0.00704
  85       10D+2        0.01005  -0.00182  -0.00559  -0.00000   0.00250
  86       10D-2        0.00000  -0.00000  -0.00000  -0.01516  -0.00000
  87       11F 0        0.00234  -0.00088  -0.00176  -0.00000   0.00207
  88       11F+1       -0.00000   0.00000  -0.00000   0.00303   0.00000
  89       11F-1        0.00217   0.00140  -0.00096  -0.00000  -0.00414
  90       11F+2        0.00345  -0.00008  -0.00171   0.00000  -0.00005
  91       11F-2        0.00000  -0.00000  -0.00000  -0.00514  -0.00000
  92       11F+3        0.00000   0.00000  -0.00000  -0.00226   0.00000
  93       11F-3       -0.00130   0.00034   0.00060  -0.00000  -0.00062
  94 4   O  1S         -0.00000  -0.09077   0.04612   0.00000  -0.03083
  95        2S         -0.00000  -0.21440   0.11013   0.00000  -0.07375
  96        3S          0.00000   0.31285  -0.17134   0.00000   0.11598
  97        4S          0.00000   0.41683  -0.21840  -0.00000   0.14895
  98        5S          0.00000   0.18511  -0.16913  -0.00000   0.11960
  99        6PX        -0.00000  -0.00000   0.00000   0.06306   0.00000
 100        6PY         0.00000   0.06792   0.12209   0.00000  -0.13799
 101        6PZ         0.00981  -0.00000  -0.00000  -0.00000  -0.00000
 102        7PX        -0.00000   0.00000   0.00000   0.05426   0.00000
 103        7PY         0.00000   0.06265   0.09713  -0.00000  -0.11265
 104        7PZ         0.00869   0.00000  -0.00000  -0.00000  -0.00000
 105        8PX         0.00000   0.00000  -0.00000   0.02592   0.00000
 106        8PY         0.00000   0.01086   0.04680   0.00000  -0.06304
 107        8PZ         0.00314  -0.00000  -0.00000   0.00000  -0.00000
 108        9D 0       -0.00000  -0.00244  -0.00157   0.00000   0.00160
 109        9D+1        0.00000  -0.00000  -0.00000  -0.00000   0.00000
 110        9D-1        0.00066   0.00000   0.00000   0.00000  -0.00000
 111        9D+2       -0.00000  -0.00386  -0.00302   0.00000   0.00306
 112        9D-2        0.00000  -0.00000   0.00000   0.00202   0.00000
 113       10D 0       -0.00000  -0.00805  -0.00480   0.00000   0.00452
 114       10D+1        0.00000  -0.00000  -0.00000  -0.00000   0.00000
 115       10D-1        0.00334  -0.00000  -0.00000  -0.00000  -0.00000
 116       10D+2       -0.00000  -0.01251  -0.00801   0.00000   0.00904
 117       10D-2        0.00000   0.00000  -0.00000   0.00947   0.00000
 118       11F 0       -0.00054  -0.00000   0.00000  -0.00000   0.00000
 119       11F+1       -0.00000  -0.00000  -0.00000  -0.00061  -0.00000
 120       11F-1       -0.00000  -0.00221  -0.00176   0.00000   0.00187
 121       11F+2       -0.00071  -0.00000  -0.00000  -0.00000  -0.00000
 122       11F-2        0.00000  -0.00000  -0.00000  -0.00000   0.00000
 123       11F+3        0.00000  -0.00000   0.00000  -0.00223  -0.00000
 124       11F-3       -0.00000  -0.00270  -0.00206   0.00000   0.00228
                          11        12        13        14        15
                           O         O         O         O         O
     Eigenvalues --    -0.51228  -0.35465  -0.29577  -0.29319  -0.29151
   1 1   N  1S         -0.00000  -0.00527  -0.00000   0.00000   0.00000
   2        2S         -0.00000  -0.01150  -0.00000   0.00000   0.00000
   3        3S         -0.00000   0.00349  -0.00000  -0.00000  -0.00000
   4        4S          0.00000   0.09928   0.00000   0.00000   0.00000
   5        5S         -0.00000   0.08516   0.00000   0.00000   0.00000
   6        6PX        -0.00000   0.00000   0.00000   0.00000   0.02405
   7        6PY         0.00000  -0.12529  -0.00000  -0.00000  -0.00000
   8        6PZ         0.27012  -0.00000   0.00000  -0.04151   0.00000
   9        7PX        -0.00000   0.00000   0.00000   0.00000   0.02544
  10        7PY         0.00000  -0.09296   0.00000   0.00000  -0.00000
  11        7PZ         0.18384   0.00000   0.00000  -0.02143   0.00000
  12        8PX        -0.00000  -0.00000   0.00000   0.00000   0.04921
  13        8PY        -0.00000   0.03149   0.00000   0.00000   0.00000
  14        8PZ         0.02388   0.00000  -0.00000   0.09556   0.00000
  15        9D 0       -0.00000  -0.02159   0.00000   0.00000  -0.00000
  16        9D+1       -0.00000   0.00000   0.02060   0.00000  -0.00000
  17        9D-1        0.01071  -0.00000   0.00000  -0.01694   0.00000
  18        9D+2       -0.00000  -0.00944   0.00000   0.00000  -0.00000
  19        9D-2       -0.00000   0.00000  -0.00000  -0.00000  -0.01139
  20       10D 0        0.00000  -0.04320  -0.00000   0.00000   0.00000
  21       10D+1       -0.00000  -0.00000   0.04973   0.00000  -0.00000
  22       10D-1       -0.00887   0.00000   0.00000  -0.04438   0.00000
  23       10D+2       -0.00000  -0.03327  -0.00000  -0.00000  -0.00000
  24       10D-2       -0.00000  -0.00000  -0.00000  -0.00000  -0.04155
  25       11F 0        0.00156   0.00000   0.00000  -0.00107   0.00000
  26       11F+1       -0.00000  -0.00000  -0.00000  -0.00000  -0.00273
  27       11F-1        0.00000  -0.00420   0.00000   0.00000   0.00000
  28       11F+2       -0.00247  -0.00000  -0.00000  -0.00005  -0.00000
  29       11F-2       -0.00000   0.00000   0.01016   0.00000  -0.00000
  30       11F+3        0.00000   0.00000  -0.00000  -0.00000  -0.00266
  31       11F-3       -0.00000  -0.00066  -0.00000  -0.00000  -0.00000
  32 2   O  1S          0.03730   0.00400  -0.00000   0.00418  -0.00000
  33        2S          0.08913   0.00972  -0.00000   0.01036  -0.00000
  34        3S         -0.13390  -0.01606   0.00000  -0.01918   0.00000
  35        4S         -0.19976  -0.02395  -0.00000  -0.00041  -0.00000
  36        5S         -0.15956  -0.05866   0.00000  -0.09962  -0.00000
  37        6PX        -0.00000  -0.00000   0.34828   0.00000  -0.10762
  38        6PY        -0.20877   0.24976  -0.00000   0.00990  -0.00000
  39        6PZ        -0.14303  -0.12451  -0.00000   0.11241  -0.00000
  40        7PX         0.00000  -0.00000   0.29615   0.00000  -0.08900
  41        7PY        -0.16375   0.21023   0.00000   0.00275   0.00000
  42        7PZ        -0.10654  -0.10084  -0.00000   0.08589  -0.00000
  43        8PX         0.00000   0.00000   0.24223   0.00000  -0.08149
  44        8PY        -0.08761   0.15397  -0.00000   0.01538   0.00000
  45        8PZ        -0.07066  -0.06770  -0.00000   0.10295  -0.00000
  46        9D 0       -0.00004   0.00297   0.00000  -0.00093   0.00000
  47        9D+1        0.00000   0.00000  -0.00300  -0.00000   0.00148
  48        9D-1        0.00725  -0.00340   0.00000  -0.00294   0.00000
  49        9D+2       -0.00530   0.00297   0.00000   0.00022  -0.00000
  50        9D-2        0.00000  -0.00000  -0.00427  -0.00000   0.00065
  51       10D 0        0.00032   0.00754  -0.00000  -0.00429   0.00000
  52       10D+1       -0.00000  -0.00000  -0.00950  -0.00000   0.00416
  53       10D-1        0.01423  -0.01186  -0.00000  -0.00538  -0.00000
  54       10D+2       -0.01234   0.00606   0.00000   0.00004   0.00000
  55       10D-2       -0.00000  -0.00000  -0.01362  -0.00000   0.00078
  56       11F 0        0.00246  -0.00248   0.00000   0.00026  -0.00000
  57       11F+1        0.00000   0.00000   0.00040   0.00000  -0.00074
  58       11F-1       -0.00109   0.00033  -0.00000   0.00190  -0.00000
  59       11F+2        0.00345  -0.00223   0.00000  -0.00058  -0.00000
  60       11F-2        0.00000   0.00000   0.00370   0.00000  -0.00079
  61       11F+3       -0.00000  -0.00000  -0.00130  -0.00000   0.00005
  62       11F-3        0.00129  -0.00072  -0.00000   0.00009  -0.00000
  63 3   O  1S         -0.03730   0.00400   0.00000  -0.00418   0.00000
  64        2S         -0.08913   0.00972   0.00000  -0.01036   0.00000
  65        3S          0.13390  -0.01606  -0.00000   0.01918  -0.00000
  66        4S          0.19976  -0.02395   0.00000   0.00041   0.00000
  67        5S          0.15956  -0.05866  -0.00000   0.09962   0.00000
  68        6PX        -0.00000   0.00000  -0.34828  -0.00000  -0.10762
  69        6PY         0.20877   0.24976   0.00000  -0.00990   0.00000
  70        6PZ        -0.14303   0.12451  -0.00000   0.11241  -0.00000
  71        7PX        -0.00000  -0.00000  -0.29615  -0.00000  -0.08900
  72        7PY         0.16375   0.21023  -0.00000  -0.00275  -0.00000
  73        7PZ        -0.10654   0.10084  -0.00000   0.08589  -0.00000
  74        8PX         0.00000   0.00000  -0.24223  -0.00000  -0.08149
  75        8PY         0.08761   0.15397   0.00000  -0.01538  -0.00000
  76        8PZ        -0.07066   0.06770  -0.00000   0.10295  -0.00000
  77        9D 0        0.00004   0.00297  -0.00000   0.00093  -0.00000
  78        9D+1       -0.00000   0.00000  -0.00300  -0.00000  -0.00148
  79        9D-1        0.00725   0.00340   0.00000  -0.00294   0.00000
  80        9D+2        0.00530   0.00297   0.00000  -0.00022   0.00000
  81        9D-2        0.00000  -0.00000   0.00427   0.00000   0.00065
  82       10D 0       -0.00032   0.00754  -0.00000   0.00429   0.00000
  83       10D+1       -0.00000   0.00000  -0.00950  -0.00000  -0.00416
  84       10D-1        0.01423   0.01186   0.00000  -0.00538  -0.00000
  85       10D+2        0.01234   0.00606  -0.00000  -0.00004  -0.00000
  86       10D-2        0.00000  -0.00000   0.01362   0.00000   0.00078
  87       11F 0        0.00246   0.00248  -0.00000   0.00026  -0.00000
  88       11F+1       -0.00000  -0.00000  -0.00040  -0.00000  -0.00074
  89       11F-1        0.00109   0.00033   0.00000  -0.00190   0.00000
  90       11F+2        0.00345   0.00223  -0.00000  -0.00058   0.00000
  91       11F-2        0.00000  -0.00000   0.00370   0.00000   0.00079
  92       11F+3        0.00000   0.00000   0.00130   0.00000   0.00005
  93       11F-3       -0.00129  -0.00072   0.00000  -0.00009  -0.00000
  94 4   O  1S         -0.00000   0.00992  -0.00000  -0.00000  -0.00000
  95        2S         -0.00000   0.02412  -0.00000  -0.00000  -0.00000
  96        3S          0.00000  -0.04133   0.00000  -0.00000   0.00000
  97        4S          0.00000  -0.04070  -0.00000   0.00000  -0.00000
  98        5S         -0.00000  -0.05429   0.00000  -0.00000   0.00000
  99        6PX        -0.00000   0.00000   0.00000   0.00000   0.44510
 100        6PY        -0.00000   0.23804  -0.00000  -0.00000  -0.00000
 101        6PZ         0.05413  -0.00000  -0.00000   0.44456  -0.00000
 102        7PX        -0.00000  -0.00000   0.00000   0.00000   0.36497
 103        7PY        -0.00000   0.19417   0.00000  -0.00000  -0.00000
 104        7PZ         0.04516  -0.00000  -0.00000   0.36191  -0.00000
 105        8PX         0.00000   0.00000   0.00000   0.00000   0.32217
[...]
     XX                                                                                                                              
     XX                                                                                                                              
     XX                                                                                                                              
     XX                                                                                                                              
     XX                                                                                                                              
     XX                                                                                                                              
     XX                                                                                                                              
     XX                                                                                                                              
     XX                                                                                                                              
 
 
                                                       no3-m.pbe0.optg-freq.chk
                                                            Raman Spectrum
 
     11                         1                                                                                                    
     44                         1                     8          77                                                                  
     11                         2                     7          43                                                                  
     53                         5                     0          08                                                                  
 
     XX                         X                                XX                                                                  
                                X                                XX                                                                  
                                X                                XX                                                                  
                                X                                                                                                    
                                X                                                                                                    
                                X                                                                                                    
                                X                                                                                                    
                                X                                                                                                    
                                X                                                                                                    
                                X                                                                                                    
                                X                                                                                                    
                                X                                                                                                    
                                X                                                                                                    
                                X                                                                                                    
                                X                                                                                                    
                                X                                                                                                    
                                X                                                                                                    
                                X                                                                                                    
                                X                                                                                                    
                                X                                                                                                    
 
 -------------------------------------------------------------------
 Center     Atomic                   Forces (Hartrees/Bohr)
 Number     Number              X              Y              Z
 -------------------------------------------------------------------
      1        7           0.000024156    0.000346219    0.000000000
      2        8          -0.000008069   -0.000172494   -0.000085928
      3        8          -0.000008069   -0.000172494    0.000085928
      4        8          -0.000008019   -0.000001231   -0.000000000
 -------------------------------------------------------------------
 Cartesian Forces:  Max     0.000346219 RMS     0.000127450
 Force constants in Cartesian coordinates: 
                1             2             3             4             5 
      1  0.310436D+00
      2  0.801627D-05  0.764862D+00
      3  0.000000D+00  0.000000D+00  0.763575D+00
      4 -0.103636D+00 -0.657598D-05 -0.104318D-04  0.344664D-01
      5 -0.330662D-05 -0.193815D+00 -0.106061D+00  0.729887D-05  0.245205D+00
      6 -0.485314D-05 -0.106128D+00 -0.315079D+00  0.943112D-05  0.180962D+00
      7 -0.103636D+00 -0.657599D-05  0.104318D-04  0.347971D-01  0.000000D+00
      8 -0.330662D-05 -0.193815D+00  0.106061D+00  0.000000D+00  0.403734D-01
      9  0.485314D-05  0.106128D+00 -0.315079D+00  0.198949D-05  0.866947D-02
     10 -0.103164D+00  0.513571D-05  0.000000D+00  0.343722D-01 -0.366191D-05
     11 -0.140303D-05 -0.377231D+00  0.000000D+00  0.000000D+00 -0.917632D-01
     12  0.000000D+00  0.000000D+00 -0.133417D+00  0.000000D+00 -0.835704D-01
                6             7             8             9            10 
      6  0.454180D+00
      7 -0.198949D-05  0.344664D-01
      8 -0.866947D-02  0.729888D-05  0.245205D+00
      9 -0.134908D+00 -0.943111D-05 -0.180962D+00  0.454180D+00
     10 -0.258848D-05  0.343722D-01 -0.366191D-05  0.258848D-05  0.344201D-01
     11 -0.661642D-01  0.000000D+00 -0.917632D-01  0.661642D-01  0.218812D-05
     12 -0.419309D-02  0.000000D+00  0.835704D-01 -0.419309D-02  0.000000D+00
               11            12 
     11  0.560758D+00
     12  0.000000D+00  0.141803D+00
 FormGI is forming the generalized inverse of G from B-inverse, IUseBI=4.
 Force constants in internal coordinates: 
                1             2             3             4             5 
      1  0.558654D+00
      2  0.103763D+00  0.558654D+00
      3  0.103183D+00  0.103183D+00  0.560758D+00
      4  0.354489D-01  0.354489D-01 -0.726723D-01  0.260434D+00
      5  0.355915D-01 -0.710404D-01  0.363361D-01 -0.130217D+00  0.259567D+00
      6 -0.710404D-01  0.355915D-01  0.363361D-01 -0.130217D+00 -0.129350D+00
      7 -0.102253D-04 -0.102253D-04 -0.101998D-04  0.792018D-05 -0.110459D-04
                6             7 
      6  0.259567D+00
      7 -0.110459D-04  0.142796D+00
 Leave Link  716 at Fri Feb 23 18:48:57 2024, MaxMem=  1048576000 cpu:               0.6 elap:               0.1
 (Enter /home/pcmt/gaussian/g16.C.01/g16/l103.exe)

 GradGradGradGradGradGradGradGradGradGradGradGradGradGradGradGradGradGrad
 Berny optimization.
 Red2BG is reusing G-inverse.
 Internal  Forces:  Max     0.000166728 RMS     0.000115632
 Search for a local minimum.
 Step number   1 out of a maximum of    2
 All quantities printed in internal units (Hartrees-Bohrs-Radians)
 Second derivative matrix not updated -- analytic derivatives used.
 The second derivative matrix:
                          R1        R2        R3        A1        A2
           R1           0.55865
           R2           0.10376   0.55865
           R3           0.10318   0.10318   0.56076
           A1           0.03545   0.03545  -0.07267   0.26043
           A2           0.03559  -0.07104   0.03634  -0.13022   0.25957
           A3          -0.07104   0.03559   0.03634  -0.13022  -0.12935
           D1          -0.00001  -0.00001  -0.00001   0.00001  -0.00001
                          A3        D1
           A3           0.25957
           D1          -0.00001   0.14280
 ITU=  0
     Eigenvalues ---    0.14280   0.31029   0.31075   0.53352   0.53696
     Eigenvalues ---    0.76612
 Angle between quadratic step and forces=  20.65 degrees.
 Linear search not attempted -- first point.
 Iteration  1 RMS(Cart)=  0.00023065 RMS(Int)=  0.00000006
 Iteration  2 RMS(Cart)=  0.00000006 RMS(Int)=  0.00000000
 ITry= 1 IFail=0 DXMaxC= 4.03D-04 DCOld= 1.00D+10 DXMaxT= 3.00D-01 DXLimC= 3.00D+00 Rises=F
 Variable       Old X    -DE/DX   Delta X   Delta X   Delta X     New X
                                 (Linear)    (Quad)   (Total)
    R1        2.35018  -0.00016   0.00000  -0.00032  -0.00032   2.34986
    R2        2.35018  -0.00016   0.00000  -0.00032  -0.00032   2.34986
    R3        2.34981   0.00000   0.00000   0.00022   0.00022   2.35003
    A1        2.09431   0.00017   0.00000   0.00053   0.00053   2.09484
    A2        2.09444  -0.00008   0.00000  -0.00026  -0.00026   2.09417
    A3        2.09444  -0.00008   0.00000  -0.00026  -0.00026   2.09417
    D1       -3.14148  -0.00002   0.00000  -0.00011  -0.00011   3.14159
         Item               Value     Threshold  Converged?
 Maximum Force            0.000167     0.000450     YES
 RMS     Force            0.000116     0.000300     YES
 Maximum Displacement     0.000403     0.001800     YES
 RMS     Displacement     0.000231     0.001200     YES
 Predicted change in Energy=-1.181662D-07
 Optimization completed.
    -- Stationary point found.
                           ----------------------------
                           !   Optimized Parameters   !
                           ! (Angstroms and Degrees)  !
 --------------------------                            --------------------------
 ! Name  Definition              Value          Derivative Info.                !
 --------------------------------------------------------------------------------
 ! R1    R(1,2)                  1.2437         -DE/DX =   -0.0002              !
 ! R2    R(1,3)                  1.2437         -DE/DX =   -0.0002              !
 ! R3    R(1,4)                  1.2435         -DE/DX =    0.0                 !
 ! A1    A(2,1,3)              119.9954         -DE/DX =    0.0002              !
 ! A2    A(2,1,4)              120.0023         -DE/DX =   -0.0001              !
 ! A3    A(3,1,4)              120.0023         -DE/DX =   -0.0001              !
 ! D1    D(2,1,4,3)            180.0066         -DE/DX =    0.0                 !
 --------------------------------------------------------------------------------
 GradGradGradGradGradGradGradGradGradGradGradGradGradGradGradGradGradGrad

 Leave Link  103 at Fri Feb 23 18:48:57 2024, MaxMem=  1048576000 cpu:               0.1 elap:               0.0
 (Enter /home/pcmt/gaussian/g16.C.01/g16/l9999.exe)

 ----------------------------------------------------------------------

 Electric dipole moment (input orientation):
 (Debye = 10**-18 statcoulomb cm , SI units = C m)
                  (au)            (Debye)         (10**-30 SI)
   Tot        0.181701D-03      0.461838D-03      0.154053D-02
   x         -0.425503D-04     -0.108152D-03     -0.360756D-03
   y          0.176649D-03      0.448996D-03      0.149769D-02
   z          0.000000D+00      0.000000D+00      0.000000D+00

 Dipole polarizability, Alpha (input orientation).
 (esu units = cm**3 , SI units = C**2 m**2 J**-1)
 Alpha(0;0):
               (au)            (10**-24 esu)      (10**-40 SI)
   iso        0.304459D+02      0.451162D+01      0.501985D+01
   aniso      0.214210D+02      0.317426D+01      0.353184D+01
   xx         0.161653D+02      0.239544D+01      0.266529D+01
   yx         0.377198D-03      0.558950D-04      0.621915D-04
   yy         0.375782D+02      0.556852D+01      0.619581D+01
   zx         0.000000D+00      0.000000D+00      0.000000D+00
   zy         0.000000D+00      0.000000D+00      0.000000D+00
   zz         0.375942D+02      0.557089D+01      0.619845D+01

 First dipole hyperpolarizability, Beta (input orientation).
 ||, _|_  parallel and perpendicular components, (z) with respect to z axis,
 vector components x,y,z.  Values do not include the 1/n! factor of 1/2.
 (esu units = statvolt**-1 cm**4 , SI units = C**3 m**3 J**-2)
 Beta(0;0,0):
               (au)            (10**-30 esu)      (10**-50 SI)
   || (z)     0.000000D+00      0.000000D+00      0.000000D+00
   _|_(z)     0.000000D+00      0.000000D+00      0.000000D+00
   x         -0.188604D-01     -0.162939D-03     -0.604734D-04
   y          0.323914D+00      0.279837D-02      0.103859D-02
   z          0.000000D+00      0.000000D+00      0.000000D+00
   ||         0.648925D-01      0.560621D-03      0.208069D-03
   xxx       -0.320526D-02     -0.276910D-04     -0.102772D-04
   xxy        0.225122D-01      0.194488D-03      0.721823D-04
   yxy       -0.653708D-03     -0.564753D-05     -0.209602D-05
   yyy        0.511961D+02      0.442295D+00      0.164153D+00
   xxz        0.000000D+00      0.000000D+00      0.000000D+00
   yxz        0.000000D+00      0.000000D+00      0.000000D+00
   yyz        0.000000D+00      0.000000D+00      0.000000D+00
   zxz       -0.242784D-02     -0.209746D-04     -0.778453D-05
   zyz       -0.511107D+02     -0.441556D+00     -0.163879D+00
   zzz        0.000000D+00      0.000000D+00      0.000000D+00

 ----------------------------------------------------------------------

 Dipole orientation:
     7         -0.00008570         -0.00002064         -0.00011697
     8          0.74416821         -1.91422766          1.14235464
     8         -0.20905974          2.04312210          1.14235463
     8         -0.53502277         -0.12887380         -2.28459230

 Electric dipole moment (dipole orientation):
 (Debye = 10**-18 statcoulomb cm , SI units = C m)
                  (au)            (Debye)         (10**-30 SI)
   Tot        0.181701D-03      0.461838D-03      0.154053D-02
   x          0.000000D+00      0.000000D+00      0.000000D+00
   y          0.000000D+00      0.000000D+00      0.000000D+00
   z          0.181701D-03      0.461838D-03      0.154053D-02

 Dipole polarizability, Alpha (dipole orientation).
 (esu units = cm**3 , SI units = C**2 m**2 J**-1)
 Alpha(0;0):
               (au)            (10**-24 esu)      (10**-40 SI)
   iso        0.304459D+02      0.451162D+01      0.501985D+01
   aniso      0.214210D+02      0.317426D+01      0.353184D+01
   xx         0.184504D+02      0.273407D+01      0.304207D+01
   yx        -0.461126D+01     -0.683318D+00     -0.760294D+00
   yy         0.364835D+02      0.540629D+01      0.601531D+01
   zx         0.473977D+01      0.702362D+00      0.781483D+00
   zy         0.114169D+01      0.169182D+00      0.188240D+00
   zz         0.364038D+02      0.539448D+01      0.600217D+01

 First dipole hyperpolarizability, Beta (dipole orientation).
 ||, _|_  parallel and perpendicular components, (z) with respect to z axis,
 vector components x,y,z.  Values do not include the 1/n! factor of 1/2.
 (esu units = statvolt**-1 cm**4 , SI units = C**3 m**3 J**-2)
 Beta(0;0,0):
               (au)            (10**-30 esu)      (10**-50 SI)
   || (z)     0.638648D-01      0.551742D-03      0.204774D-03
   _|_(z)     0.212883D-01      0.183914D-03      0.682579D-04
   x          0.559181D-01      0.483089D-03      0.179294D-03
   y          0.134693D-01      0.116364D-03      0.431874D-04
   z          0.319324D+00      0.275871D-02      0.102387D-02
   ||         0.648925D-01      0.560621D-03      0.208069D-03
   xxx       -0.129966D+01     -0.112281D-01     -0.416719D-02
   xxy        0.529378D+01      0.457341D-01      0.169738D-01
   yxy       -0.968804D+01     -0.836971D-01     -0.310634D-01
   yyy       -0.794044D+01     -0.685993D-01     -0.254599D-01
   xxz       -0.127407D+00     -0.110070D-02     -0.408514D-03
   yxz        0.119381D+02      0.103136D+00      0.382780D-01
   yyz       -0.468133D+02     -0.404431D+00     -0.150100D+00
   zxz        0.110063D+02      0.950862D-01      0.352903D-01
   zyz        0.265116D+01      0.229039D-01      0.850057D-02
   zzz        0.470472D+02      0.406451D+00      0.150850D+00

 ----------------------------------------------------------------------

 Test job not archived.
 1\1\GINC-U-0-11\Freq\RPBE1PBE\Gen/Gen\N1O3\VALLET\23-Feb-2024\0\\#P Ge
 om=AllCheck Guess=TCheck SCRF=Check Test GenChk RPBE1PBE/Gen/Gen Freq\
 \no3-m.pbe0.optg-freq.chk\\-1,1\N,-0.0000308575,-0.0000711006,0.\O,0.0
 000214122,0.6218029984,1.0770173572\O,0.0000214122,0.6218029984,-1.077
 0173572\O,-0.000011967,-1.2435348961,0.\\Version=ES64L-G16RevC.01\HF=-
 280.3008594\RMSD=6.015e-10\RMSF=1.275e-04\ZeroPoint=0.0143535\Thermal=
 0.0174792\ETot=-280.2833801\HTot=-280.282436\GTot=-280.3119533\Dipole=
 -0.0000407,0.000181,0.\DipoleDeriv=0.2972052,0.0000488,0.,0.000049,3.0
 819839,0.,0.,0.,3.0834687,-0.4323839,-0.0000414,-0.0000633,-0.0000053,
 -1.0488877,-0.5376108,-0.0000004,-0.5364122,-1.6759077,-0.4323839,-0.0
 000414,0.0000633,-0.0000053,-1.0488877,0.5376108,0.0000004,0.5364122,-
 1.6759077,-0.4324375,0.000034,0.,-0.0000384,-1.9842086,0.,0.,0.,-0.731
 6533\Polar=16.165261,0.0003772,37.5782215,0.,0.,37.594206\PolarDeriv=-
 0.0013561,0.0624471,-0.001597,0.,0.,-0.0016713,-0.0035618,-0.0005896,1
 .391251,0.,0.,-1.3788555,0.,0.,0.,-0.0006489,-1.3499014,0.,0.0005891,3
 .0060582,0.0005673,5.2671842,0.0000215,0.0006303,0.6378295,0.000209,8.
 4429576,0.0001416,5.020307,3.5738439,1.0880979,0.0002161,5.3920604,0.0
 003527,3.3061536,15.5074641,0.0005891,3.0060582,0.0005673,-5.2671842,-
 0.0000215,0.0006303,0.6378295,0.000209,8.4429576,-0.0001416,-5.020307,
 3.5738439,-1.0880979,-0.0002161,-5.3920604,0.0003527,3.3061536,-15.507
 4641,0.0001779,-6.0745635,0.0004623,0.,0.,0.0004106,-1.2720972,0.00017
 16,-18.2771661,0.,0.,-5.7688323,0.,0.,0.,-0.0000565,-5.2624058,0.\Hype
 rPolar=-0.0032053,0.0225122,-0.0006537,51.1961337,0.,0.,0.,-0.0024278,
 -51.1106746,0.\Quadrupole=3.7939869,-1.8958162,-1.8981707,-0.0001015,0
 .,0.\PG=Unknown\NImag=0\\0.31043576,0.00000802,0.76486160,0.,0.,0.7635
 7528,-0.10363566,-0.00000658,-0.00001043,0.03446641,-0.00000331,-0.193
 81515,-0.10606084,0.00000730,0.24520498,-0.00000485,-0.10612815,-0.315
 07927,0.00000943,0.18096179,0.45418045,-0.10363566,-0.00000658,0.00001
 043,0.03479708,-0.00000033,-0.00000199,0.03446641,-0.00000331,-0.19381
 515,0.10606084,-0.00000033,0.04037336,-0.00866947,0.00000730,0.2452049
 8,0.00000485,0.10612815,-0.31507927,0.00000199,0.00866947,-0.13490809,
 -0.00000943,-0.18096179,0.45418045,-0.10316444,0.00000514,0.,0.0343721
 7,-0.00000366,-0.00000259,0.03437217,-0.00000366,0.00000259,0.03442010
 ,-0.00000140,-0.37723131,0.,-0.00000039,-0.09176319,-0.06616416,-0.000
 00039,-0.09176319,0.06616416,0.00000219,0.56075769,0.,0.,-0.13341673,-
 0.00000099,-0.08357042,-0.00419309,0.00000099,0.08357042,-0.00419309,0
 .,0.,0.14180290\\-0.00002416,-0.00034622,0.,0.00000807,0.00017249,0.00
 008593,0.00000807,0.00017249,-0.00008593,0.00000802,0.00000123,0.\\\@


 YOU SHOULDN'T LET PEOPLE DRIVE YOU CRAZY
 WHEN YOU KNOW IT'S WITHIN WALKING DISTANCE.
 Job cpu time:       0 days  0 hours  4 minutes 49.4 seconds.
 Elapsed time:       0 days  0 hours  0 minutes 37.3 seconds.
 File lengths (MBytes):  RWF=     16 Int=      0 D2E=      0 Chk=      3 Scr=      1
 Normal termination of Gaussian 16 at Fri Feb 23 18:48:57 2024.
