

 Parallel Execution: Process Information
 ==============================================================================
 Rank   Node Name                              NodeID   MyNodeRank  NodeMaster
    0   u-0-11.local                              0          0          0
    1   u-0-11.local                              0          1         -1
    2   u-0-11.local                              1          0          1
    3   u-0-11.local                              1          1         -1
    4   u-0-11.local                              2          0          2
    5   u-0-11.local                              2          1         -1
    6   u-0-11.local                              3          0          3
    7   u-0-11.local                              3          1         -1
 ==============================================================================


May use up to 31200MB of RAM as shared memory on node 0
May use up to 31250MB of RAM as shared memory on node 1
May use up to 31250MB of RAM as shared memory on node 2
May use up to 31250MB of RAM as shared memory on node 3

 *******************************************************************************
 *                                                                             *
 *  --------------------------------                                           *
 *   Amsterdam Modeling Suite (AMS)              2023.101                      *
 *  --------------------------------                                           *
 *                                               r111868 2023-03-31            *
 *                                                                             *
 *                                                                             *
 *                              =================                              *
 *                              |               |                              *
 *                              |     A M S     |                              *
 *                              |               |                              *
 *                              =================                              *
 *                                                                             *
 *                                                                             *
 *   Online information and documentation:  https://www.scm.com/support/       *
 *   E-mail:  support@scm.com   info@scm.com                                   *
 *                                                                             *
 *   Scientific publications using AMS results must be properly referenced     *
 *   See the User Manuals (or the web site) for recommended citations          *
 *   The terms and conditions of the End User License Agreement apply to       *
 *   the use of AMS, https://www.scm.com/license-terms/                        *
 *                                                                             *
 **********************  x86_64_linux_intel / intelmpi  ************************
 
 Licensed to: Dr. Val?rie Vallet / Laboratoire PhLAM UMR 8523 / Villeneuve d'Ascq Cedex / FRANCE 2024-02-19 16:59:55
 SCM User ID: u10325
  
 AMS 2023.101  RunTime: Feb28-2024 11:26:21  ShM Nodes: 4  Procs: 8

 AMS jobname: CeIV-O-CeIV.eclipsed-nonitrate.x2c-so.pbe0
 AMS jobid  : 1659260744

 Start   directory: /home/vallet/ANL/CeIV-dimer/CeIV-O-CeIV/eclipsed-structure-Ce-dinuclear2/geom-pbe0-COSMO/sp-pbe0-SO/
 Results directory: /home/vallet/ANL/CeIV-dimer/CeIV-O-CeIV/eclipsed-structure-Ce-dinuclear2/geom-pbe0-COSMO/sp-pbe0-SO/CeIV-O-CeIV.eclipsed-nonitrate.x2c-so.pbe0.results/
 Scratch directory: /state/partition2/vallet/1008355.phlam-s-sakura/amstmp_CeIV-O-CeIV.eclipsed-nonitrate.x2c-so.pbe0_kid0.1659260744/


 Communication costs MPI_COMM_WORLD:      3.400 usec per message,   0.0259 usec per 8-byte item
 Communication costs for intra-node:      0.403 usec per message,   0.0026 usec per 8-byte item

 RNG seed: -1721815057 1315355434 1405760660 -790664843 764122946 1441017874 1933669248 1003695520



                      ************************************************************************
                      *  ADF 2023.101  RunTime: Feb28-2024 11:26:22  ShM Nodes: 4  Procs: 8  *
                      ************************************************************************
  

       ****************************
       * SINGLE POINT CALCULATION *
       ****************************
 
--------
Geometry
--------
Formula: H12Ce2N5O22
Atoms
  Index Symbol   x (angstrom)   y (angstrom)   z (angstrom)
      1      O     0.65845100     0.09309800     2.00161000
      2     Ce     0.10730200     0.02739500    -0.03386400
      3      O    -0.50413400     1.32093100    -2.13164600
      4      O     2.48860400    -0.72275200    -0.01118700
      5      N     2.67852300    -0.65892000    -1.25616700
      6      O     3.72935300    -0.93967800    -1.76357600
      7      O     1.68323400    -0.27511300    -1.93240100
      8      O     0.35417700    -2.43867400     0.36495100
      9      O     1.69447800     1.97456500    -0.15465200
     10      N     0.93550900     2.83731800     0.34940900
     11      O     1.27981300     3.96775700     0.55599800
     12      O    -0.23393000     2.42742000     0.62697900
     13      O    -1.08193200    -1.37045800    -1.75373100
     14      O    -2.25754900     0.71934200    -0.13153700
     15      N    -2.72984800    -0.20564100     0.58687700
     16      O    -3.90194500    -0.29710800     0.82558400
     17      O    -1.88050100    -1.02213600     1.03203000
     18     Ce     0.84612400     0.20666200     3.96611000
     19      O     1.66897900    -0.80572300     6.20595200
     20      O    -0.57905400     2.14974900     3.43175400
     21      O    -0.69921600    -1.68561600     4.09736100
     22      N     0.12155600    -2.61478100     3.83525000
     23      O    -0.22175900    -3.76436400     3.76958800
     24      O     1.30800500    -2.24793100     3.64790400
     25      O     0.42446700     1.71337300     5.96199100
     26      O     3.23900000    -0.19622200     3.81983000
     27      N     3.60972400     0.99420800     3.58681300
     28      O     4.76343800     1.27991400     3.42884200
     29      O     2.68416700     1.84577400     3.53191400
     30      H    -0.56614400     2.42251600     2.49693100
     31      H     1.16852900    -2.70615500     0.80834500
     32      H    -0.53060300     2.95462700     3.96093800
     33      H    -0.36521500    -2.88649200     0.82741100
     34      H     0.93913100     1.44007500     6.73230500
     35      H    -1.15987700    -0.90700200    -2.59745900
     36      H    -0.48763800     1.79401200     6.26909200
     37      H    -0.67663900    -2.22568000    -1.94320200
     38      H     0.99088800    -1.27287900     6.71017000
     39      H     0.22179200     1.70253800    -2.64029300
     40      H     2.41153700    -1.41779200     6.13478900
     41      H    -1.18247900     2.00409500    -2.06840300
 
Total System Charge             1.00000
Bonding info available!
 
 
----------------
ADF Engine Input
----------------
 
 Basis
 Type TZ2P
 Core None
 End
 XC
 Hybrid PBE0
 End
 Relativity
 Level Spin-Orbit
 Formalism X2C
 SpinOrbitMagnetization NonCollinear
 End
 

 Title: *** (NO TITLE) ***

 *** adf ***



 ===========================
 A T T A C H E D   F I L E S
 ===========================
  



 ===============================
 M O D E L   P A R A M E T E R S
 ===============================
  
 DENSITY FUNCTIONAL POTENTIAL (scf)
    Hybrid:                            PBE0                                    == Not Default ==

 SPIN  (restricted / unrestr.)
    Molecule:                          Restricted                               
    Fragments:                         Restricted                               

 OTHER ASPECTS
    Relativistic Corrections:          Spin-Orbit (X2C,MAPA)                   == Not Default ==

    Nuclear Charge Density Model:      Point Charge Nuclei                      
    Core Treatment:                    Frozen Orbital(s)                        

    Hyperfine or Zeeman Interaction:   ---                                      


 Fragment File(s)
 ----------------
 O:
         file : /home/vallet/ANL/CeIV-dimer/CeIV-O-CeIV/eclipsed-structure-Ce-dinuclear2/geom-pbe0-COSMO/sp-pbe0-SO/CeIV-O-CeIV.eclipsed-nonitrate.x2c-so.pbe0.results/t21.5810AA2E.O
         jobid: 0
         title: Oxygen (TZ2P)
 Ce:
         file : /home/vallet/ANL/CeIV-dimer/CeIV-O-CeIV/eclipsed-structure-Ce-dinuclear2/geom-pbe0-COSMO/sp-pbe0-SO/CeIV-O-CeIV.eclipsed-nonitrate.x2c-so.pbe0.results/t21.190B7557.Ce
         jobid: 0
         title: Cerium (TZP, all electron)
 N:
         file : /home/vallet/ANL/CeIV-dimer/CeIV-O-CeIV/eclipsed-structure-Ce-dinuclear2/geom-pbe0-COSMO/sp-pbe0-SO/CeIV-O-CeIV.eclipsed-nonitrate.x2c-so.pbe0.results/t21.131ABD2B.N
         jobid: 0
         title: Nitrogen (TZ2P)
 H:
         file : /home/vallet/ANL/CeIV-dimer/CeIV-O-CeIV/eclipsed-structure-Ce-dinuclear2/geom-pbe0-COSMO/sp-pbe0-SO/CeIV-O-CeIV.eclipsed-nonitrate.x2c-so.pbe0.results/t21.62BC803D.H
         jobid: 0
         title: Hydrogen (TZ2P)



 ===============
 G E O M E T R Y  ***  3D  Molecule  ***
 ===============
  

 ATOMS
 =====                            X Y Z                    CHARGE
                                (Angstrom)             Nucl     +Core       At.Mass
                       --------------------------    ----------------       -------
    1  O               0.6585    0.0931    2.0016      8.00      8.00       15.9949
    2  Ce              0.1073    0.0274   -0.0339     58.00     58.00      139.9054
    3  O              -0.5041    1.3209   -2.1316      8.00      8.00       15.9949
    4  O               2.4886   -0.7228   -0.0112      8.00      8.00       15.9949
    5  N               2.6785   -0.6589   -1.2562      7.00      7.00       14.0031
    6  O               3.7294   -0.9397   -1.7636      8.00      8.00       15.9949
    7  O               1.6832   -0.2751   -1.9324      8.00      8.00       15.9949
    8  O               0.3542   -2.4387    0.3650      8.00      8.00       15.9949
    9  O               1.6945    1.9746   -0.1547      8.00      8.00       15.9949
   10  N               0.9355    2.8373    0.3494      7.00      7.00       14.0031
   11  O               1.2798    3.9678    0.5560      8.00      8.00       15.9949
   12  O              -0.2339    2.4274    0.6270      8.00      8.00       15.9949
   13  O              -1.0819   -1.3705   -1.7537      8.00      8.00       15.9949
   14  O              -2.2575    0.7193   -0.1315      8.00      8.00       15.9949
   15  N              -2.7298   -0.2056    0.5869      7.00      7.00       14.0031
   16  O              -3.9019   -0.2971    0.8256      8.00      8.00       15.9949
   17  O              -1.8805   -1.0221    1.0320      8.00      8.00       15.9949
   18  Ce              0.8461    0.2067    3.9661     58.00     58.00      139.9054
   19  O               1.6690   -0.8057    6.2060      8.00      8.00       15.9949
   20  O              -0.5791    2.1497    3.4318      8.00      8.00       15.9949
   21  O              -0.6992   -1.6856    4.0974      8.00      8.00       15.9949
   22  N               0.1216   -2.6148    3.8352      7.00      7.00       14.0031
   23  O              -0.2218   -3.7644    3.7696      8.00      8.00       15.9949
   24  O               1.3080   -2.2479    3.6479      8.00      8.00       15.9949
   25  O               0.4245    1.7134    5.9620      8.00      8.00       15.9949
   26  O               3.2390   -0.1962    3.8198      8.00      8.00       15.9949
   27  N               3.6097    0.9942    3.5868      7.00      7.00       14.0031
   28  O               4.7634    1.2799    3.4288      8.00      8.00       15.9949
   29  O               2.6842    1.8458    3.5319      8.00      8.00       15.9949
   30  H              -0.5661    2.4225    2.4969      1.00      1.00        1.0078
   31  H               1.1685   -2.7062    0.8083      1.00      1.00        1.0078
   32  H              -0.5306    2.9546    3.9609      1.00      1.00        1.0078
   33  H              -0.3652   -2.8865    0.8274      1.00      1.00        1.0078
   34  H               0.9391    1.4401    6.7323      1.00      1.00        1.0078
   35  H              -1.1599   -0.9070   -2.5975      1.00      1.00        1.0078
   36  H              -0.4876    1.7940    6.2691      1.00      1.00        1.0078
   37  H              -0.6766   -2.2257   -1.9432      1.00      1.00        1.0078
   38  H               0.9909   -1.2729    6.7102      1.00      1.00        1.0078
   39  H               0.2218    1.7025   -2.6403      1.00      1.00        1.0078
   40  H               2.4115   -1.4178    6.1348      1.00      1.00        1.0078
   41  H              -1.1825    2.0041   -2.0684      1.00      1.00        1.0078


 FRAGMENTS
 =========                                     Atoms in this Fragment     Cart. coord.s (Angstrom)
                                               -------------------------------------------------------
    1  O                                                 1  O            0.6585    0.0931    2.0016
    2  O                                                 3  O           -0.5041    1.3209   -2.1316
    3  O                                                 4  O            2.4886   -0.7228   -0.0112
    4  O                                                 6  O            3.7294   -0.9397   -1.7636
    5  O                                                 7  O            1.6832   -0.2751   -1.9324
    6  O                                                 8  O            0.3542   -2.4387    0.3650
    7  O                                                 9  O            1.6945    1.9746   -0.1547
    8  O                                                11  O            1.2798    3.9678    0.5560
    9  O                                                12  O           -0.2339    2.4274    0.6270
   10  O                                                13  O           -1.0819   -1.3705   -1.7537
   11  O                                                14  O           -2.2575    0.7193   -0.1315
   12  O                                                16  O           -3.9019   -0.2971    0.8256
   13  O                                                17  O           -1.8805   -1.0221    1.0320
   14  O                                                19  O            1.6690   -0.8057    6.2060
   15  O                                                20  O           -0.5791    2.1497    3.4318
   16  O                                                21  O           -0.6992   -1.6856    4.0974
   17  O                                                23  O           -0.2218   -3.7644    3.7696
   18  O                                                24  O            1.3080   -2.2479    3.6479
   19  O                                                25  O            0.4245    1.7134    5.9620
   20  O                                                26  O            3.2390   -0.1962    3.8198
   21  O                                                28  O            4.7634    1.2799    3.4288
   22  O                                                29  O            2.6842    1.8458    3.5319
   23  Ce                                                2  Ce           0.1073    0.0274   -0.0339
   24  Ce                                               18  Ce           0.8461    0.2067    3.9661
   25  N                                                 5  N            2.6785   -0.6589   -1.2562
   26  N                                                10  N            0.9355    2.8373    0.3494
   27  N                                                15  N           -2.7298   -0.2056    0.5869
   28  N                                                22  N            0.1216   -2.6148    3.8352
   29  N                                                27  N            3.6097    0.9942    3.5868
   30  H                                                30  H           -0.5661    2.4225    2.4969
   31  H                                                31  H            1.1685   -2.7062    0.8083
   32  H                                                32  H           -0.5306    2.9546    3.9609
   33  H                                                33  H           -0.3652   -2.8865    0.8274
   34  H                                                34  H            0.9391    1.4401    6.7323
   35  H                                                35  H           -1.1599   -0.9070   -2.5975
   36  H                                                36  H           -0.4876    1.7940    6.2691
   37  H                                                37  H           -0.6766   -2.2257   -1.9432
   38  H                                                38  H            0.9909   -1.2729    6.7102
   39  H                                                39  H            0.2218    1.7025   -2.6403
   40  H                                                40  H            2.4115   -1.4178    6.1348
   41  H                                                41  H           -1.1825    2.0041   -2.0684



 =====================================
 S Y M M E T R Y ,   E L E C T R O N S
 =====================================
  
 Symmetry: NOSYM

 Double Group Irreducible Representations (spinor symmetry)
 -----------------------------------------------------------
 A1/2

 Symmetry is NOT used when fitting density


 Configuration of Valence Electrons
 ==================================
 ( determined in the SCF procedure )

 Total:   338

 Net Charge: 1 (Nuclei minus Electrons)

 Aufbau principle for MO occupations will be applied through SCF cycle no.     150
 Thereafter, the program will assign electrons to MOs that are spatially
 similar to the occupied MOs in a "reference" cycle ("KeepOrbitals").
 The reference cycle is always the PREVIOUS cycle: it will evolve with
 the SCF procedure.
1
 ***************************************************************************************************



                                      ****************************************
                                      *  B U I L D : (Fragments, Functions)  *
                                      ****************************************
  

 Total nr. of (C)SFOs (summation over all irreps) :  1034

 Specify PRINT SFO in the input file to get a full list

 Nr. of SFOs for ir.rep.           A :  1034



 ================================
 (Slater-type)  F U N C T I O N S  ***  (Basis and Fit)  ***
 ================================
  

 Atom Type    1  (O)
 ==============

 Valence Basis Sets:  10
 -----------------------
   1 S    9.800000
   1 S    6.800000
   2 S    7.580000
   2 S    2.880000
   2 S    1.720000
   2 P    4.080000
   2 P    2.080000
   2 P    1.120000
   3 D    2.000000
   4 F    3.000000

 Charge Fitting Sets (for the computation of the Coulomb Potential):  22
 -----------------------------------------------------------------------
   1 S   19.600000
   2 S   22.600000
   2 S   15.680000
   2 S   10.890000
   2 S    7.560000
   3 S    7.690000
   3 S    5.650000
   3 S    4.150000
   3 S    3.050000
   3 S    2.240000
   2 P   12.860000
   2 P    7.680000
   3 P    6.780000
   3 P    4.390000
   3 P    2.840000
   3 D    8.800000
   3 D    5.580000
   3 D    3.530000
   3 D    2.240000
   4 F    6.200000
   4 F    3.700000
   5 G    4.500000

 Atom Type    2  (Ce)
 ==============

 Valence Basis Sets:  34
 -----------------------
   1 S  452.000000
   1 S  112.400000
   1 S   59.900000
   2 S   67.200000
   2 S   25.900000
   3 S   13.850000
   3 S   11.000000
   4 S   10.500000
   4 S    6.600000
   5 S    4.300000
   5 S    2.800000
   6 S    1.950000
   6 S    1.250000
   6 S    0.820000
   2 P  112.400000
   2 P   40.100000
   2 P   24.950000
   3 P   14.600000
   3 P   11.200000
   4 P    8.300000
   4 P    5.650000
   5 P    3.650000
   5 P    2.250000
   3 D   18.900000
   3 D   11.500000
   4 D    7.550000
   4 D    4.650000
   5 D    2.900000
   5 D    1.600000
   5 D    0.900000
   4 F    8.150000
   4 F    3.800000
   4 F    1.650000
   6 P    1.250000

 Charge Fitting Sets (for the computation of the Coulomb Potential):  73
 -----------------------------------------------------------------------
   1 S  904.000000
   1 S  677.300000
   1 S  507.450000
   1 S  380.195000
   1 S  284.852000
   1 S  213.418000
   1 S  159.898000
   1 S  119.800000
   1 S   71.430000
   2 S   78.880000
   2 S   52.890000
   3 S   52.070000
   3 S   37.160000
   4 S   35.060000
   4 S   26.040000
   5 S   24.090000
   5 S   18.410000
   6 S   16.860000
   6 S   13.160000
   7 S   11.990000
   7 S    9.520000
   8 S    8.650000
   8 S    6.960000
   9 S    6.310000
   9 S    5.150000
  10 S    4.660000
  10 S    3.840000
  10 S    3.160000
  11 S    2.860000
  11 S    2.380000
  11 S    1.970000
  11 S    1.640000
   2 P   84.850000
   3 P   69.680000
   4 P   56.300000
   5 P   45.370000
   5 P   30.410000
   6 P   24.560000
   6 P   17.000000
   7 P   13.780000
   7 P    9.790000
   8 P    7.970000
   8 P    5.780000
   9 P    4.730000
   9 P    3.490000
  10 P    2.870000
  10 P    2.150000
   3 D   71.400000
   4 D   50.910000
   5 D   36.700000
   6 D   26.770000
   7 D   19.760000
   7 D   12.810000
   8 D    9.560000
   8 D    6.360000
   9 D    4.790000
   9 D    3.260000
  10 D    2.480000
  10 D    1.720000
   4 F   63.700000
   5 F   39.060000
   6 F   24.580000
   7 F   15.830000
   8 F   10.400000
   8 F    6.110000
   9 F    4.080000
   9 F    2.470000
   5 G   28.750000
   6 G   16.000000
   7 G    9.190000
   8 G    5.430000
   9 G    3.280000
   9 G    1.800000

 Atom Type    3  (N)
 ==============

 Valence Basis Sets:  10
 -----------------------
   1 S    8.740000
   1 S    5.900000
   2 S    5.150000
   2 S    2.500000
   2 S    1.500000
   2 P    3.680000
   2 P    1.880000
   2 P    1.000000
   3 D    2.200000
   4 F    3.300000

 Charge Fitting Sets (for the computation of the Coulomb Potential):  22
 -----------------------------------------------------------------------
   1 S   17.480000
   2 S   20.150000
   2 S   13.990000
   2 S    9.710000
   2 S    6.740000
   3 S    6.860000
   3 S    5.040000
   3 S    3.700000
   3 S    2.720000
   3 S    2.000000
   2 P   11.320000
   2 P    6.730000
   3 P    5.920000
   3 P    3.820000
   3 P    2.460000
   3 D    8.100000
   3 D    5.080000
   3 D    3.190000
   3 D    2.000000
   4 F    5.800000
   4 F    3.600000
   5 G    4.500000

 Atom Type    4  (H)
 ==============

 Valence Basis Sets:   5
 -----------------------
   1 S    0.690000
   1 S    0.920000
   1 S    1.580000
   2 P    1.250000
   3 D    2.500000

 Charge Fitting Sets (for the computation of the Coulomb Potential):  11
 -----------------------------------------------------------------------
   1 S    3.160000
   1 S    2.090000
   1 S    1.380000
   2 S    1.500000
   2 P    4.000000
   2 P    2.650000
   2 P    1.750000
   3 D    4.000000
   3 D    2.500000
   4 F    3.000000
   5 G    4.000000


 BAS: List of all Elementary Cartesian Basis Functions
 =====================================================

 The numbering in the list below (to the right of the function characteristics) is referred
 to in print-outs of MO eigenvectors and Mulliken populations in the BAS representation
 (as contrasted to the SFO representation).

 Notes:
 1. The functions are characterized by a polynomial prefactor (powers of x,y,z and r) and
    an exponential decay factor alpha.
 2. Since the basis sets are specific for an atom TYPE, the individual functions occur on
    all atoms of that type.
 3. The word 'Core' in the left margin signals that it is a Core Function (CF) : not a
    degree of freedom in the valence set, but only used to ensure orthogonalization of
    the other valence basis functions on the frozen Core Orbitals.


 (power of) X  Y  Z  R     Alpha  on Atom
            ==========     =====     ==========

 O                                    1    2    3    4    5    6    7    8    9   10   11   12   13   14   15
                                     16   17   18   19   20   21   22
                                  ---------------------------------------------------------------------------
            0  0  0  0     9.800      1   31   61   91  121  151  181  211  241  271  301  331  361  391  421
                                    451  481  511  541  571  601  631
            0  0  0  0     6.800      2   32   62   92  122  152  182  212  242  272  302  332  362  392  422
                                    452  482  512  542  572  602  632
            0  0  0  1     7.580      3   33   63   93  123  153  183  213  243  273  303  333  363  393  423
                                    453  483  513  543  573  603  633
            0  0  0  1     2.880      4   34   64   94  124  154  184  214  244  274  304  334  364  394  424
                                    454  484  514  544  574  604  634
            0  0  0  1     1.720      5   35   65   95  125  155  185  215  245  275  305  335  365  395  425
                                    455  485  515  545  575  605  635
            1  0  0  0     4.080      6   36   66   96  126  156  186  216  246  276  306  336  366  396  426
                                    456  486  516  546  576  606  636
            0  1  0  0     4.080      7   37   67   97  127  157  187  217  247  277  307  337  367  397  427
                                    457  487  517  547  577  607  637
            0  0  1  0     4.080      8   38   68   98  128  158  188  218  248  278  308  338  368  398  428
                                    458  488  518  548  578  608  638
            1  0  0  0     2.080      9   39   69   99  129  159  189  219  249  279  309  339  369  399  429
                                    459  489  519  549  579  609  639
            0  1  0  0     2.080     10   40   70  100  130  160  190  220  250  280  310  340  370  400  430
                                    460  490  520  550  580  610  640
            0  0  1  0     2.080     11   41   71  101  131  161  191  221  251  281  311  341  371  401  431
                                    461  491  521  551  581  611  641
            1  0  0  0     1.120     12   42   72  102  132  162  192  222  252  282  312  342  372  402  432
                                    462  492  522  552  582  612  642
            0  1  0  0     1.120     13   43   73  103  133  163  193  223  253  283  313  343  373  403  433
                                    463  493  523  553  583  613  643
            0  0  1  0     1.120     14   44   74  104  134  164  194  224  254  284  314  344  374  404  434
                                    464  494  524  554  584  614  644
            2  0  0  0     2.000     15   45   75  105  135  165  195  225  255  285  315  345  375  405  435
                                    465  495  525  555  585  615  645
            1  1  0  0     2.000     16   46   76  106  136  166  196  226  256  286  316  346  376  406  436
                                    466  496  526  556  586  616  646
            1  0  1  0     2.000     17   47   77  107  137  167  197  227  257  287  317  347  377  407  437
                                    467  497  527  557  587  617  647
            0  2  0  0     2.000     18   48   78  108  138  168  198  228  258  288  318  348  378  408  438
                                    468  498  528  558  588  618  648
            0  1  1  0     2.000     19   49   79  109  139  169  199  229  259  289  319  349  379  409  439
                                    469  499  529  559  589  619  649
            0  0  2  0     2.000     20   50   80  110  140  170  200  230  260  290  320  350  380  410  440
                                    470  500  530  560  590  620  650
            3  0  0  0     3.000     21   51   81  111  141  171  201  231  261  291  321  351  381  411  441
                                    471  501  531  561  591  621  651
            2  1  0  0     3.000     22   52   82  112  142  172  202  232  262  292  322  352  382  412  442
                                    472  502  532  562  592  622  652
            2  0  1  0     3.000     23   53   83  113  143  173  203  233  263  293  323  353  383  413  443
                                    473  503  533  563  593  623  653
            1  2  0  0     3.000     24   54   84  114  144  174  204  234  264  294  324  354  384  414  444
                                    474  504  534  564  594  624  654
            1  1  1  0     3.000     25   55   85  115  145  175  205  235  265  295  325  355  385  415  445
                                    475  505  535  565  595  625  655
            1  0  2  0     3.000     26   56   86  116  146  176  206  236  266  296  326  356  386  416  446
                                    476  506  536  566  596  626  656
            0  3  0  0     3.000     27   57   87  117  147  177  207  237  267  297  327  357  387  417  447
                                    477  507  537  567  597  627  657
            0  2  1  0     3.000     28   58   88  118  148  178  208  238  268  298  328  358  388  418  448
                                    478  508  538  568  598  628  658
            0  1  2  0     3.000     29   59   89  119  149  179  209  239  269  299  329  359  389  419  449
                                    479  509  539  569  599  629  659
            0  0  3  0     3.000     30   60   90  120  150  180  210  240  270  300  330  360  390  420  450
                                    480  510  540  570  600  630  660

 Ce                                  23   24
                                  ---------------------------------------------------------------------------
            0  0  0  0   452.000    661  777
            0  0  0  0   112.400    662  778
            0  0  0  0    59.900    663  779
            0  0  0  1    67.200    664  780
            0  0  0  1    25.900    665  781
            0  0  0  2    13.850    666  782
            0  0  0  2    11.000    667  783
            0  0  0  3    10.500    668  784
            0  0  0  3     6.600    669  785
            0  0  0  4     4.300    670  786
            0  0  0  4     2.800    671  787
            0  0  0  5     1.950    672  788
            0  0  0  5     1.250    673  789
            0  0  0  5     0.820    674  790
            1  0  0  0   112.400    675  791
            0  1  0  0   112.400    676  792
            0  0  1  0   112.400    677  793
            1  0  0  0    40.100    678  794
            0  1  0  0    40.100    679  795
            0  0  1  0    40.100    680  796
            1  0  0  0    24.950    681  797
            0  1  0  0    24.950    682  798
            0  0  1  0    24.950    683  799
            1  0  0  1    14.600    684  800
            0  1  0  1    14.600    685  801
            0  0  1  1    14.600    686  802
            1  0  0  1    11.200    687  803
            0  1  0  1    11.200    688  804
            0  0  1  1    11.200    689  805
            1  0  0  2     8.300    690  806
            0  1  0  2     8.300    691  807
            0  0  1  2     8.300    692  808
            1  0  0  2     5.650    693  809
            0  1  0  2     5.650    694  810
            0  0  1  2     5.650    695  811
            1  0  0  3     3.650    696  812
            0  1  0  3     3.650    697  813
            0  0  1  3     3.650    698  814
            1  0  0  3     2.250    699  815
            0  1  0  3     2.250    700  816
            0  0  1  3     2.250    701  817
            2  0  0  0    18.900    702  818
            1  1  0  0    18.900    703  819
            1  0  1  0    18.900    704  820
            0  2  0  0    18.900    705  821
            0  1  1  0    18.900    706  822
            0  0  2  0    18.900    707  823
            2  0  0  0    11.500    708  824
            1  1  0  0    11.500    709  825
            1  0  1  0    11.500    710  826
            0  2  0  0    11.500    711  827
            0  1  1  0    11.500    712  828
            0  0  2  0    11.500    713  829
            2  0  0  1     7.550    714  830
            1  1  0  1     7.550    715  831
            1  0  1  1     7.550    716  832
            0  2  0  1     7.550    717  833
            0  1  1  1     7.550    718  834
            0  0  2  1     7.550    719  835
            2  0  0  1     4.650    720  836
            1  1  0  1     4.650    721  837
            1  0  1  1     4.650    722  838
            0  2  0  1     4.650    723  839
            0  1  1  1     4.650    724  840
            0  0  2  1     4.650    725  841
            2  0  0  2     2.900    726  842
            1  1  0  2     2.900    727  843
            1  0  1  2     2.900    728  844
            0  2  0  2     2.900    729  845
            0  1  1  2     2.900    730  846
            0  0  2  2     2.900    731  847
            2  0  0  2     1.600    732  848
            1  1  0  2     1.600    733  849
            1  0  1  2     1.600    734  850
            0  2  0  2     1.600    735  851
            0  1  1  2     1.600    736  852
            0  0  2  2     1.600    737  853
            2  0  0  2     0.900    738  854
            1  1  0  2     0.900    739  855
            1  0  1  2     0.900    740  856
            0  2  0  2     0.900    741  857
            0  1  1  2     0.900    742  858
            0  0  2  2     0.900    743  859
            3  0  0  0     8.150    744  860
            2  1  0  0     8.150    745  861
            2  0  1  0     8.150    746  862
            1  2  0  0     8.150    747  863
            1  1  1  0     8.150    748  864
            1  0  2  0     8.150    749  865
            0  3  0  0     8.150    750  866
            0  2  1  0     8.150    751  867
            0  1  2  0     8.150    752  868
            0  0  3  0     8.150    753  869
            3  0  0  0     3.800    754  870
            2  1  0  0     3.800    755  871
            2  0  1  0     3.800    756  872
            1  2  0  0     3.800    757  873
            1  1  1  0     3.800    758  874
            1  0  2  0     3.800    759  875
            0  3  0  0     3.800    760  876
            0  2  1  0     3.800    761  877
            0  1  2  0     3.800    762  878
            0  0  3  0     3.800    763  879
            3  0  0  0     1.650    764  880
            2  1  0  0     1.650    765  881
            2  0  1  0     1.650    766  882
            1  2  0  0     1.650    767  883
            1  1  1  0     1.650    768  884
            1  0  2  0     1.650    769  885
            0  3  0  0     1.650    770  886
            0  2  1  0     1.650    771  887
            0  1  2  0     1.650    772  888
            0  0  3  0     1.650    773  889
            1  0  0  4     1.250    774  890
            0  1  0  4     1.250    775  891
            0  0  1  4     1.250    776  892

 N                                   25   26   27   28   29
                                  ---------------------------------------------------------------------------
            0  0  0  0     8.740    893  923  953  983 1013
            0  0  0  0     5.900    894  924  954  984 1014
            0  0  0  1     5.150    895  925  955  985 1015
            0  0  0  1     2.500    896  926  956  986 1016
            0  0  0  1     1.500    897  927  957  987 1017
            1  0  0  0     3.680    898  928  958  988 1018
            0  1  0  0     3.680    899  929  959  989 1019
            0  0  1  0     3.680    900  930  960  990 1020
            1  0  0  0     1.880    901  931  961  991 1021
            0  1  0  0     1.880    902  932  962  992 1022
            0  0  1  0     1.880    903  933  963  993 1023
            1  0  0  0     1.000    904  934  964  994 1024
            0  1  0  0     1.000    905  935  965  995 1025
            0  0  1  0     1.000    906  936  966  996 1026
            2  0  0  0     2.200    907  937  967  997 1027
            1  1  0  0     2.200    908  938  968  998 1028
            1  0  1  0     2.200    909  939  969  999 1029
            0  2  0  0     2.200    910  940  970 1000 1030
            0  1  1  0     2.200    911  941  971 1001 1031
            0  0  2  0     2.200    912  942  972 1002 1032
            3  0  0  0     3.300    913  943  973 1003 1033
            2  1  0  0     3.300    914  944  974 1004 1034
            2  0  1  0     3.300    915  945  975 1005 1035
            1  2  0  0     3.300    916  946  976 1006 1036
            1  1  1  0     3.300    917  947  977 1007 1037
            1  0  2  0     3.300    918  948  978 1008 1038
            0  3  0  0     3.300    919  949  979 1009 1039
            0  2  1  0     3.300    920  950  980 1010 1040
            0  1  2  0     3.300    921  951  981 1011 1041
            0  0  3  0     3.300    922  952  982 1012 1042

 H                                   30   31   32   33   34   35   36   37   38   39   40   41
                                  ---------------------------------------------------------------------------
            0  0  0  0     0.690   1043 1055 1067 1079 1091 1103 1115 1127 1139 1151 1163 1175
            0  0  0  0     0.920   1044 1056 1068 1080 1092 1104 1116 1128 1140 1152 1164 1176
            0  0  0  0     1.580   1045 1057 1069 1081 1093 1105 1117 1129 1141 1153 1165 1177
            1  0  0  0     1.250   1046 1058 1070 1082 1094 1106 1118 1130 1142 1154 1166 1178
            0  1  0  0     1.250   1047 1059 1071 1083 1095 1107 1119 1131 1143 1155 1167 1179
            0  0  1  0     1.250   1048 1060 1072 1084 1096 1108 1120 1132 1144 1156 1168 1180
            2  0  0  0     2.500   1049 1061 1073 1085 1097 1109 1121 1133 1145 1157 1169 1181
            1  1  0  0     2.500   1050 1062 1074 1086 1098 1110 1122 1134 1146 1158 1170 1182
            1  0  1  0     2.500   1051 1063 1075 1087 1099 1111 1123 1135 1147 1159 1171 1183
            0  2  0  0     2.500   1052 1064 1076 1088 1100 1112 1124 1136 1148 1160 1172 1184
            0  1  1  0     2.500   1053 1065 1077 1089 1101 1113 1125 1137 1149 1161 1173 1185
            0  0  2  0     2.500   1054 1066 1078 1090 1102 1114 1126 1138 1150 1162 1174 1186

 Total number of charge fitting functions (nprimf)      3506
 Total number of Cartesian basis functions (naos)       1186
 Total number of Cartesian core functions  (ncos)          0

1
 ***************************************************************************************************



                                              ***********************
                                              *  T E C H N I C A L  *
                                              ***********************
  



 =============================================================
 P A R A L L E L I Z A T I O N  and  V E C T O R I Z A T I O N
 =============================================================
  
 Nr of parallel processes:                                8
 Maximum vector length in NumInt loops:                 128



 =====================
 S C F   U P D A T E S
 =====================
  
 Max. nr. of cycles:                               300
 Convergence criterion:                              0.0000010000
   secondary criterion:                              0.0010000000

 Mix parameter (when DIIS does not apply):           0.2000000000
 Mixed ADIIS+SDIIS will be used                  
    Max number of expansion vectors:                10
    Pure ADIIS when Max([F,P]) is above              0.1000000000
    Pure SDIIS when Max([F,P]) is below              0.0010000000
 Automatic ElectronSmearing (in case of problematic SCF convergence) disabled



 =================
 P R E C I S I O N  ***  (General: NumInt, NeglectFunctionTails, ...)  ***
 =================
  

 NumInt:           Target precision:                 4.0000000000
 -------           Initial precision:                4.0000000000
                   Min. precision (optimization):    4.0000000000

 Neglect Functions:          Basis functions:        0.1000000000E-05
 ------------------          Fit functions:          0.1000000000E-05



 ===========================
 L I N E A R   S C A L I N G
 ===========================
  

 Cut-off radii density fit:                        0.1000000000E-07
 Overlap cut-off criterion AO matrix elements:     0.1000000000E-05
 Cut-offs for Coulomb potential and fitted density:0.1000000000E-07
 Cut-off criterion for Coulomb multipole terms:    0.1000000000E-07
 Progressive Convergence parameter:                 0.000000000    
1
 ***************************************************************************************************



                                            ***************************
                                            *  C O M P U T A T I O N  *
                                            ***************************
  



 ==============================
 Double group spinor symmetries  ***  (Spin-Orbit)  ***
 ==============================
  

 The double group Lowdins are spinors adapted to the irreducible representations
 of the double group. These double group Lowdins are linear combinations of
 products of the single group Lowdins and the spinfunctions. The single group
 Lowdins are  orthonormalized symmetrized fragment orbitals (SFOs).
 The complex coefficients that are used in the linear combinations are also
 known as Clebsch-Gordan coefficients.
 The spin functions (alpha,beta) span irrep e1/2


          A * e 1/2 :      A1/2

  A1/2:1 = A.alpha
  A1/2:1 = A.beta

 The table summarizes which one-electron orbital irreps (single group) couple
 with spin to which spinor irreps (double group).
 The Clebsch-Gordan series for each direct product: orbital irrep times e1/2.
                  A
            -------
  A1/2           X


 dimension (equal to the max. nr. of electrons per spinor) of the double group irreps
 ------------------------------------------------------------------------------------
  A1/2           1

 Number of elements of the density matrix on this node (used, total):     85719    703891



 ===========================================
 Numerical Integration : Fuzzy Cells (Becke)
 ===========================================
  
 Becke grid quality: NORMAL         
  
 Lebedev angular grid order:             min:  11 max:  31
 Nr. of radial points:                   min:  46 max: 144

 Total nr. of points:     311623
 Nr. of blocks:             2435
 Block length:               128
 Nr. of dummy points:         57


 Test of Precision of the Numerical Integration Grid
 ===================================================

 Integral of the Total Core Density:                   0.00000000000000



 ========================
 Density Fitting (zlmFit)
 ========================
  
 ZlmFit Fit Quality: NORMAL         
  
 Max L-expansion:                        min:   6 max:   8
 Nr. of radial interpolation points:     min:  39 max: 132



 ======================
 RI Hartree-Fock Scheme
 ======================
  
 Fit Set Quality     : NORMAL
 Threshold Quality   : NORMAL
 Integration Quality : NORMAL
 Fit Generation Method : AUTO
 Response Quality    : DEFAULT
 Is Range Separated  :  F
 
 RIHartreeFock Dependency: number of modified vectors:          17



 =====
 S C F  ***  ScaSCF  ***
 =====
  
 Initial density matrix is calculated as sum of fragments

 CYCLE    1
 SCF Error: norm([F,P])=    251.412449191679, max([F,P])=     42.458726280761
 orbitals (Q,E):
 ---------------
 A1/2 :329...348     ( 1.00    -0.4187)  ( 1.00    -0.4187)  ( 1.00    -0.4162)  ( 1.00    -0.4162)
                     ( 1.00    -0.4133)  ( 1.00    -0.4133)  ( 1.00    -0.4121)  ( 1.00    -0.4121)
                     ( 1.00    -0.4097)  ( 1.00    -0.4097)  ( 0.00    -0.1629)  ( 0.00    -0.1629)
                     ( 0.00    -0.1622)  ( 0.00    -0.1622)  ( 0.00    -0.1599)  ( 0.00    -0.1599)
                     ( 0.00    -0.1594)  ( 0.00    -0.1594)  ( 0.00    -0.1590)  ( 0.00    -0.1590)

 CYCLE    2
   MIX coefficients:  0.8000  0.2000
 SCF Error: norm([F,P])=      2.392462222552, max([F,P])=      0.158203135740
 orbitals (Q,E):
 ---------------
 A1/2 :329...348     ( 1.00    -0.4053)  ( 1.00    -0.4053)  ( 1.00    -0.4029)  ( 1.00    -0.4029)
                     ( 1.00    -0.3984)  ( 1.00    -0.3984)  ( 1.00    -0.3961)  ( 1.00    -0.3961)
                     ( 1.00    -0.3909)  ( 1.00    -0.3909)  ( 0.00    -0.2328)  ( 0.00    -0.2328)
                     ( 0.00    -0.2317)  ( 0.00    -0.2317)  ( 0.00    -0.2297)  ( 0.00    -0.2297)
                     ( 0.00    -0.2232)  ( 0.00    -0.2232)  ( 0.00    -0.2214)  ( 0.00    -0.2214)

 CYCLE    3
  SDIIS (wt  0.000): -0.8248  1.8248
 A-DIIS (wt  1.000):  0.0000  1.0000
  DIIS coefficients:  0.0000  1.0000
 SCF Error: norm([F,P])=      1.157671227023, max([F,P])=      0.064591487919
 orbitals (Q,E):
 ---------------
 A1/2 :329...348     ( 1.00    -0.4375)  ( 1.00    -0.4375)  ( 1.00    -0.4371)  ( 1.00    -0.4371)
                     ( 1.00    -0.4337)  ( 1.00    -0.4337)  ( 1.00    -0.4324)  ( 1.00    -0.4324)
                     ( 1.00    -0.4308)  ( 1.00    -0.4308)  ( 0.00    -0.4233)  ( 0.00    -0.4233)
                     ( 0.00    -0.4224)  ( 0.00    -0.4224)  ( 0.00    -0.4191)  ( 0.00    -0.4191)
                     ( 0.00    -0.4142)  ( 0.00    -0.4142)  ( 0.00    -0.4120)  ( 0.00    -0.4120)

 CYCLE    4
  SDIIS (wt  0.000): -0.7879  1.7827  0.0052
 A-DIIS (wt  1.000):  0.0000  0.9865  0.0135
  DIIS coefficients:  0.0000  0.9865  0.0135
 SCF Error: norm([F,P])=     24.379328066915, max([F,P])=      2.121315094670
 orbitals (Q,E):
 ---------------
 A1/2 :329...348     ( 1.00    -0.4063)  ( 1.00    -0.4063)  ( 1.00    -0.4004)  ( 1.00    -0.4004)
                     ( 1.00    -0.3991)  ( 1.00    -0.3991)  ( 1.00    -0.3974)  ( 1.00    -0.3974)
                     ( 1.00    -0.3930)  ( 1.00    -0.3930)  ( 0.00    -0.3807)  ( 0.00    -0.3807)
                     ( 0.00    -0.3784)  ( 0.00    -0.3784)  ( 0.00    -0.3721)  ( 0.00    -0.3721)
                     ( 0.00    -0.3680)  ( 0.00    -0.3680)  ( 0.00    -0.3627)  ( 0.00    -0.3627)

 CYCLE    5
  SDIIS (wt  0.000): -0.6897  1.6453 -0.0011  0.0455
 A-DIIS (wt  1.000):  0.0000  0.8818  0.0000  0.1182
  DIIS coefficients:  0.0000  0.8818  0.0000  0.1182
 SCF Error: norm([F,P])=      5.597524135341, max([F,P])=      0.993747117302
 orbitals (Q,E):
 ---------------
 A1/2 :329...348     ( 1.00    -0.4169)  ( 1.00    -0.4169)  ( 1.00    -0.4071)  ( 1.00    -0.4071)
                     ( 1.00    -0.4068)  ( 1.00    -0.4068)  ( 1.00    -0.4011)  ( 1.00    -0.4011)
                     ( 1.00    -0.3911)  ( 1.00    -0.3911)  ( 0.00    -0.3234)  ( 0.00    -0.3234)
                     ( 0.00    -0.3219)  ( 0.00    -0.3219)  ( 0.00    -0.3185)  ( 0.00    -0.3185)
                     ( 0.00    -0.3125)  ( 0.00    -0.3125)  ( 0.00    -0.3100)  ( 0.00    -0.3100)

 CYCLE    6
  SDIIS (wt  0.000): -0.3172  1.0307 -0.0024  0.0383  0.2506
 A-DIIS (wt  1.000):  0.0000  0.5381  0.0000  0.0000  0.4619
  DIIS coefficients:  0.0000  0.5381  0.0000  0.0000  0.4619
 SCF Error: norm([F,P])=      1.325793735729, max([F,P])=      0.092066272320
 orbitals (Q,E):
 ---------------
 A1/2 :329...348     ( 1.00    -0.4524)  ( 1.00    -0.4524)  ( 1.00    -0.4503)  ( 1.00    -0.4503)
                     ( 1.00    -0.4477)  ( 1.00    -0.4477)  ( 1.00    -0.4445)  ( 1.00    -0.4445)
                     ( 1.00    -0.4399)  ( 1.00    -0.4399)  ( 0.00    -0.4274)  ( 0.00    -0.4274)
                     ( 0.00    -0.4218)  ( 0.00    -0.4218)  ( 0.00    -0.4172)  ( 0.00    -0.4172)
                     ( 0.00    -0.4153)  ( 0.00    -0.4153)  ( 0.00    -0.4096)  ( 0.00    -0.4096)

 CYCLE    7
  SDIIS (wt  0.000): -0.2571  0.9159 -0.0045  0.0133  0.3199  0.0125
 A-DIIS (wt  1.000):  0.0000  0.5408  0.0000  0.0000  0.4504  0.0088
  DIIS coefficients:  0.0000  0.5408  0.0000  0.0000  0.4504  0.0088
 SCF Error: norm([F,P])=     15.429391373101, max([F,P])=      2.744586693246
 orbitals (Q,E):
 ---------------
 A1/2 :329...348     ( 1.00    -0.4441)  ( 1.00    -0.4441)  ( 1.00    -0.4303)  ( 1.00    -0.4303)
                     ( 1.00    -0.4280)  ( 1.00    -0.4280)  ( 1.00    -0.4187)  ( 1.00    -0.4187)
                     ( 1.00    -0.4131)  ( 1.00    -0.4131)  ( 0.00    -0.3939)  ( 0.00    -0.3939)
                     ( 0.00    -0.3920)  ( 0.00    -0.3920)  ( 0.00    -0.3851)  ( 0.00    -0.3851)
                     ( 0.00    -0.3790)  ( 0.00    -0.3790)  ( 0.00    -0.3717)  ( 0.00    -0.3717)

 CYCLE    8
  SDIIS (wt  0.000):  0.0444  0.2839  0.0038 -0.0910  0.4800 -0.0047  0.2838
 A-DIIS (wt  1.000):  0.0000  0.4734  0.0000  0.0000  0.3818  0.0000  0.1448
  DIIS coefficients:  0.0000  0.4734  0.0000  0.0000  0.3818  0.0000  0.1448
 SCF Error: norm([F,P])=      2.340252340109, max([F,P])=      0.474239306584
 orbitals (Q,E):
 ---------------
 A1/2 :329...348     ( 1.00    -0.4450)  ( 1.00    -0.4450)  ( 1.00    -0.4332)  ( 1.00    -0.4332)
                     ( 1.00    -0.4286)  ( 1.00    -0.4286)  ( 1.00    -0.4209)  ( 1.00    -0.4209)
                     ( 1.00    -0.4150)  ( 1.00    -0.4150)  ( 0.00    -0.2854)  ( 0.00    -0.2854)
                     ( 0.00    -0.2835)  ( 0.00    -0.2835)  ( 0.00    -0.2818)  ( 0.00    -0.2818)
                     ( 0.00    -0.2739)  ( 0.00    -0.2739)  ( 0.00    -0.2721)  ( 0.00    -0.2721)

 CYCLE    9
  SDIIS (wt  0.797): -0.0477  0.1758  0.0026  0.0234  0.0323 -0.0034 -0.0040  0.8208
 A-DIIS (wt  0.203):  0.0000  0.0000  0.0000  0.0000  0.0000  0.0000  0.0000  1.0000
  DIIS coefficients: -0.0380  0.1402  0.0021  0.0187  0.0258 -0.0027 -0.0032  0.8571
 SCF Error: norm([F,P])=      0.185092606156, max([F,P])=      0.021076791264
 orbitals (Q,E):
 ---------------
 A1/2 :329...348     ( 1.00    -0.4536)  ( 1.00    -0.4536)  ( 1.00    -0.4409)  ( 1.00    -0.4409)
                     ( 1.00    -0.4386)  ( 1.00    -0.4386)  ( 1.00    -0.4333)  ( 1.00    -0.4333)
                     ( 1.00    -0.4236)  ( 1.00    -0.4236)  ( 0.00    -0.3245)  ( 0.00    -0.3245)
                     ( 0.00    -0.3233)  ( 0.00    -0.3233)  ( 0.00    -0.3215)  ( 0.00    -0.3215)
                     ( 0.00    -0.3162)  ( 0.00    -0.3162)  ( 0.00    -0.3147)  ( 0.00    -0.3147)

 CYCLE   10
  SDIIS (wt  0.000): -0.0141  0.0197 -0.0000 -0.0010 -0.0168  0.0001  0.0025  0.5968  0.4128
 A-DIIS (wt  1.000):  0.0000  0.0000  0.0000  0.0000  0.0000  0.0000  0.0000  0.6388  0.3612
  DIIS coefficients:  0.0000  0.0000  0.0000  0.0000  0.0000  0.0000  0.0000  0.6388  0.3612
 SCF Error: norm([F,P])=      0.284847989175, max([F,P])=      0.031475166558
 orbitals (Q,E):
 ---------------
 A1/2 :329...348     ( 1.00    -0.4529)  ( 1.00    -0.4529)  ( 1.00    -0.4412)  ( 1.00    -0.4412)
                     ( 1.00    -0.4385)  ( 1.00    -0.4385)  ( 1.00    -0.4320)  ( 1.00    -0.4320)
                     ( 1.00    -0.4235)  ( 1.00    -0.4235)  ( 0.00    -0.3077)  ( 0.00    -0.3077)
                     ( 0.00    -0.3063)  ( 0.00    -0.3063)  ( 0.00    -0.3046)  ( 0.00    -0.3046)
                     ( 0.00    -0.2973)  ( 0.00    -0.2973)  ( 0.00    -0.2957)  ( 0.00    -0.2957)

 CYCLE   11
  SDIIS (wt  0.933):  0.0082 -0.0130 -0.0001  0.0004  0.0038  0.0002 -0.0097  0.3089  0.1423  0.5591
 A-DIIS (wt  0.067):  0.0000  0.0000  0.0000  0.0000  0.0000  0.0000  0.0000  0.0751  0.0000  0.9249
  DIIS coefficients:  0.0076 -0.0122 -0.0001  0.0003  0.0035  0.0002 -0.0090  0.2931  0.1327  0.5838
 SCF Error: norm([F,P])=      0.063173805883, max([F,P])=      0.007670528818
 orbitals (Q,E):
 ---------------
 A1/2 :329...348     ( 1.00    -0.4513)  ( 1.00    -0.4513)  ( 1.00    -0.4396)  ( 1.00    -0.4396)
                     ( 1.00    -0.4362)  ( 1.00    -0.4362)  ( 1.00    -0.4297)  ( 1.00    -0.4297)
                     ( 1.00    -0.4220)  ( 1.00    -0.4220)  ( 0.00    -0.2952)  ( 0.00    -0.2952)
                     ( 0.00    -0.2940)  ( 0.00    -0.2940)  ( 0.00    -0.2932)  ( 0.00    -0.2932)
                     ( 0.00    -0.2857)  ( 0.00    -0.2857)  ( 0.00    -0.2843)  ( 0.00    -0.2843)

 CYCLE   12
  SDIIS (wt  0.986): -0.0018 -0.0000 -0.0004 -0.0004  0.0000 -0.0001  0.0882  0.0333  0.2581  0.6231
 A-DIIS (wt  0.014):  0.0000  0.0000  0.0000  0.0000  0.0000  0.0000  0.0000  0.0000  0.1287  0.8713
  DIIS coefficients: -0.0017 -0.0000 -0.0004 -0.0003  0.0000 -0.0001  0.0870  0.0328  0.2563  0.6265
 SCF Error: norm([F,P])=      0.018326360566, max([F,P])=      0.002367134043
 orbitals (Q,E):
 ---------------
 A1/2 :329...348     ( 1.00    -0.4509)  ( 1.00    -0.4509)  ( 1.00    -0.4393)  ( 1.00    -0.4393)
                     ( 1.00    -0.4361)  ( 1.00    -0.4361)  ( 1.00    -0.4295)  ( 1.00    -0.4295)
                     ( 1.00    -0.4217)  ( 1.00    -0.4217)  ( 0.00    -0.2977)  ( 0.00    -0.2977)
                     ( 0.00    -0.2964)  ( 0.00    -0.2964)  ( 0.00    -0.2954)  ( 0.00    -0.2954)
                     ( 0.00    -0.2875)  ( 0.00    -0.2875)  ( 0.00    -0.2862)  ( 0.00    -0.2862)

 CYCLE   13
  SDIIS (wt  1.000):  0.0000 -0.0004  0.0009 -0.0000  0.0013  0.0291  0.0087  0.1147  0.3986  0.4471
  DIIS coefficients:  0.0000 -0.0004  0.0009 -0.0000  0.0013  0.0291  0.0087  0.1147  0.3986  0.4471
 SCF Error: norm([F,P])=      0.004791304633, max([F,P])=      0.000558240982
 orbitals (Q,E):
 ---------------
 A1/2 :329...348     ( 1.00    -0.4511)  ( 1.00    -0.4511)  ( 1.00    -0.4395)  ( 1.00    -0.4395)
                     ( 1.00    -0.4361)  ( 1.00    -0.4361)  ( 1.00    -0.4296)  ( 1.00    -0.4296)
                     ( 1.00    -0.4218)  ( 1.00    -0.4218)  ( 0.00    -0.2975)  ( 0.00    -0.2975)
                     ( 0.00    -0.2962)  ( 0.00    -0.2962)  ( 0.00    -0.2952)  ( 0.00    -0.2952)
                     ( 0.00    -0.2873)  ( 0.00    -0.2873)  ( 0.00    -0.2860)  ( 0.00    -0.2860)

 CYCLE   14
  SDIIS (wt  1.000):  0.0000  0.0001  0.0000 -0.0001  0.0001 -0.0021  0.0241  0.1194  0.2781  0.5803
  DIIS coefficients:  0.0000  0.0001  0.0000 -0.0001  0.0001 -0.0021  0.0241  0.1194  0.2781  0.5803
 SCF Error: norm([F,P])=      0.001945119920, max([F,P])=      0.000190759358
 orbitals (Q,E):
 ---------------
 A1/2 :329...348     ( 1.00    -0.4511)  ( 1.00    -0.4511)  ( 1.00    -0.4395)  ( 1.00    -0.4395)
                     ( 1.00    -0.4362)  ( 1.00    -0.4362)  ( 1.00    -0.4296)  ( 1.00    -0.4296)
                     ( 1.00    -0.4219)  ( 1.00    -0.4219)  ( 0.00    -0.2975)  ( 0.00    -0.2975)
                     ( 0.00    -0.2962)  ( 0.00    -0.2962)  ( 0.00    -0.2952)  ( 0.00    -0.2952)
                     ( 0.00    -0.2872)  ( 0.00    -0.2872)  ( 0.00    -0.2860)  ( 0.00    -0.2860)

 CYCLE   15
  SDIIS (wt  1.000):  0.0000  0.0000 -0.0001 -0.0036 -0.0018  0.0009  0.0209  0.0965  0.3289  0.5583
  DIIS coefficients:  0.0000  0.0000 -0.0001 -0.0036 -0.0018  0.0009  0.0209  0.0965  0.3289  0.5583
 SCF Error: norm([F,P])=      0.000631797027, max([F,P])=      0.000074276027
 orbitals (Q,E):
 ---------------
 A1/2 :329...348     ( 1.00    -0.4511)  ( 1.00    -0.4511)  ( 1.00    -0.4395)  ( 1.00    -0.4395)
                     ( 1.00    -0.4362)  ( 1.00    -0.4362)  ( 1.00    -0.4296)  ( 1.00    -0.4296)
                     ( 1.00    -0.4219)  ( 1.00    -0.4219)  ( 0.00    -0.2975)  ( 0.00    -0.2975)
                     ( 0.00    -0.2962)  ( 0.00    -0.2962)  ( 0.00    -0.2952)  ( 0.00    -0.2952)
                     ( 0.00    -0.2872)  ( 0.00    -0.2872)  ( 0.00    -0.2860)  ( 0.00    -0.2860)

 CYCLE   16
  SDIIS (wt  1.000):  0.0000 -0.0000 -0.0023 -0.0006 -0.0040 -0.0043  0.0205  0.1307  0.3334  0.5265
  DIIS coefficients:  0.0000 -0.0000 -0.0023 -0.0006 -0.0040 -0.0043  0.0205  0.1307  0.3334  0.5265
 SCF Error: norm([F,P])=      0.000250980171, max([F,P])=      0.000025734904
 orbitals (Q,E):
 ---------------
 A1/2 :329...348     ( 1.00    -0.4511)  ( 1.00    -0.4511)  ( 1.00    -0.4395)  ( 1.00    -0.4395)
                     ( 1.00    -0.4362)  ( 1.00    -0.4362)  ( 1.00    -0.4296)  ( 1.00    -0.4296)
                     ( 1.00    -0.4219)  ( 1.00    -0.4219)  ( 0.00    -0.2975)  ( 0.00    -0.2975)
                     ( 0.00    -0.2962)  ( 0.00    -0.2962)  ( 0.00    -0.2952)  ( 0.00    -0.2952)
                     ( 0.00    -0.2872)  ( 0.00    -0.2872)  ( 0.00    -0.2860)  ( 0.00    -0.2860)

 CYCLE   17
  SDIIS (wt  1.000):  0.0000 -0.0008  0.0001 -0.0033 -0.0078 -0.0115  0.0030  0.0739  0.3688  0.5775
  DIIS coefficients:  0.0000 -0.0008  0.0001 -0.0033 -0.0078 -0.0115  0.0030  0.0739  0.3688  0.5775
 SCF Error: norm([F,P])=      0.000137823931, max([F,P])=      0.000014772930
 orbitals (Q,E):
 ---------------
 A1/2 :329...348     ( 1.00    -0.4511)  ( 1.00    -0.4511)  ( 1.00    -0.4395)  ( 1.00    -0.4395)
                     ( 1.00    -0.4362)  ( 1.00    -0.4362)  ( 1.00    -0.4296)  ( 1.00    -0.4296)
                     ( 1.00    -0.4219)  ( 1.00    -0.4219)  ( 0.00    -0.2975)  ( 0.00    -0.2975)
                     ( 0.00    -0.2962)  ( 0.00    -0.2962)  ( 0.00    -0.2952)  ( 0.00    -0.2952)
                     ( 0.00    -0.2872)  ( 0.00    -0.2872)  ( 0.00    -0.2860)  ( 0.00    -0.2860)

 CYCLE   18
  SDIIS (wt  1.000): -0.0000  0.0002 -0.0015 -0.0052 -0.0138 -0.0318 -0.0347  0.1270  0.3645  0.5953
  DIIS coefficients: -0.0000  0.0002 -0.0015 -0.0052 -0.0138 -0.0318 -0.0347  0.1270  0.3645  0.5953
 SCF Error: norm([F,P])=      0.000061532302, max([F,P])=      0.000005940986
 orbitals (Q,E):
 ---------------
 A1/2 :329...348     ( 1.00    -0.4511)  ( 1.00    -0.4511)  ( 1.00    -0.4395)  ( 1.00    -0.4395)
                     ( 1.00    -0.4362)  ( 1.00    -0.4362)  ( 1.00    -0.4296)  ( 1.00    -0.4296)
                     ( 1.00    -0.4219)  ( 1.00    -0.4219)  ( 0.00    -0.2975)  ( 0.00    -0.2975)
                     ( 0.00    -0.2962)  ( 0.00    -0.2962)  ( 0.00    -0.2952)  ( 0.00    -0.2952)
                     ( 0.00    -0.2872)  ( 0.00    -0.2872)  ( 0.00    -0.2860)  ( 0.00    -0.2860)

 CYCLE   19
  SDIIS (wt  1.000):  0.0000 -0.0004 -0.0014 -0.0038 -0.0115 -0.0184  0.0193  0.1072  0.2503  0.6585
  DIIS coefficients:  0.0000 -0.0004 -0.0014 -0.0038 -0.0115 -0.0184  0.0193  0.1072  0.2503  0.6585
 SCF Error: norm([F,P])=      0.000016877544, max([F,P])=      0.000001718986
 orbitals (Q,E):
 ---------------
 A1/2 :329...348     ( 1.00    -0.4511)  ( 1.00    -0.4511)  ( 1.00    -0.4395)  ( 1.00    -0.4395)
                     ( 1.00    -0.4362)  ( 1.00    -0.4362)  ( 1.00    -0.4296)  ( 1.00    -0.4296)
                     ( 1.00    -0.4219)  ( 1.00    -0.4219)  ( 0.00    -0.2975)  ( 0.00    -0.2975)
                     ( 0.00    -0.2962)  ( 0.00    -0.2962)  ( 0.00    -0.2952)  ( 0.00    -0.2952)
                     ( 0.00    -0.2872)  ( 0.00    -0.2872)  ( 0.00    -0.2860)  ( 0.00    -0.2860)

 CYCLE   20
  SDIIS (wt  1.000): -0.0002 -0.0008 -0.0014 -0.0042 -0.0067  0.0041  0.0379  0.1030  0.3727  0.4955
  DIIS coefficients: -0.0002 -0.0008 -0.0014 -0.0042 -0.0067  0.0041  0.0379  0.1030  0.3727  0.4955
 SCF Error: norm([F,P])=      0.000009415840, max([F,P])=      0.000001172103
 orbitals (Q,E):
 ---------------
 A1/2 :329...348     ( 1.00    -0.4511)  ( 1.00    -0.4511)  ( 1.00    -0.4395)  ( 1.00    -0.4395)
                     ( 1.00    -0.4362)  ( 1.00    -0.4362)  ( 1.00    -0.4296)  ( 1.00    -0.4296)
                     ( 1.00    -0.4219)  ( 1.00    -0.4219)  ( 0.00    -0.2975)  ( 0.00    -0.2975)
                     ( 0.00    -0.2962)  ( 0.00    -0.2962)  ( 0.00    -0.2952)  ( 0.00    -0.2952)
                     ( 0.00    -0.2872)  ( 0.00    -0.2872)  ( 0.00    -0.2860)  ( 0.00    -0.2860)

 CYCLE   21
  SDIIS (wt  1.000): -0.0001  0.0003  0.0011  0.0028  0.0004 -0.0051 -0.0163 -0.0480  0.2524  0.8124
  DIIS coefficients: -0.0001  0.0003  0.0011  0.0028  0.0004 -0.0051 -0.0163 -0.0480  0.2524  0.8124
 SCF Error: norm([F,P])=      0.000003451874, max([F,P])=      0.000000282782
 orbitals (Q,E):
 ---------------
 A1/2 :329...348     ( 1.00    -0.4511)  ( 1.00    -0.4511)  ( 1.00    -0.4395)  ( 1.00    -0.4395)
                     ( 1.00    -0.4362)  ( 1.00    -0.4362)  ( 1.00    -0.4296)  ( 1.00    -0.4296)
                     ( 1.00    -0.4219)  ( 1.00    -0.4219)  ( 0.00    -0.2975)  ( 0.00    -0.2975)
                     ( 0.00    -0.2962)  ( 0.00    -0.2962)  ( 0.00    -0.2952)  ( 0.00    -0.2952)
                     ( 0.00    -0.2872)  ( 0.00    -0.2872)  ( 0.00    -0.2860)  ( 0.00    -0.2860)

 SCF CONVERGED

 CYCLE   22
1
 ***************************************************************************************************



                                                *******************
                                                *  R E S U L T S  *
                                                *******************
  
  
 Hartree-Fock exchange energy:   -634.762805045461     
 *** Using FIT density in Focky
  SDIIS (wt  1.000):  0.0002  0.0002  0.0002 -0.0036 -0.0082 -0.0181 -0.0592  0.0805  0.5479  0.4601
  DIIS coefficients:  0.0002  0.0002  0.0002 -0.0036 -0.0082 -0.0181 -0.0592  0.0805  0.5479  0.4601
 SCF Error: norm([F,P])=      0.000003794915, max([F,P])=      0.000000282441

 Orbital Energies, per Irrep and Spin:
 ======================================
                        Occup              E (au)              E (eV)       Diff (eV) with prev. cycle
                        -----      --------------------        ------       --------------------------
 A1/2
             329        1.000     -0.45109899602848E+00       -12.275               1.96E-06
             330        1.000     -0.45109899602376E+00       -12.275               1.96E-06
             331        1.000     -0.43952023192658E+00       -11.960              -1.35E-06
             332        1.000     -0.43952023192450E+00       -11.960              -1.35E-06
             333        1.000     -0.43620475388141E+00       -11.870              -1.17E-06
             334        1.000     -0.43620475387743E+00       -11.870              -1.17E-06
             335        1.000     -0.42963178003718E+00       -11.691              -9.36E-07
             336        1.000     -0.42963178003006E+00       -11.691              -9.36E-07
             337        1.000     -0.42187158562048E+00       -11.480              -3.41E-07
             338        1.000     -0.42187158559806E+00       -11.480              -3.41E-07
             339        0.000     -0.29747059173023E+00        -8.095
             340        0.000     -0.29747059172655E+00        -8.095
             341        0.000     -0.29617342222321E+00        -8.059
             342        0.000     -0.29617342221799E+00        -8.059
             343        0.000     -0.29521496878733E+00        -8.033
             344        0.000     -0.29521496878380E+00        -8.033
             345        0.000     -0.28724193203483E+00        -7.816
             346        0.000     -0.28724193202918E+00        -7.816
             347        0.000     -0.28596373251800E+00        -7.781
             348        0.000     -0.28596373251045E+00        -7.781
  
 HOMO :      338 A1/2             -0.42187158559806E+00
 LUMO :      339 A1/2             -0.29747059173023E+00
  


 All Electron Calculation, thus no Orbital Energies of the Core Orbitals are calculated


 Fit test: (difference of exact and fit density, squared integrated, result summed over spins)
         Sum-of-Fragments:                             0.00000003810375
         Orthogonalized Fragments:                     0.00137924145547
         SCF:                                          0.00151612469750



 ==========================
 Electron Density at Nuclei
 ==========================
  
 The electron density is calculated at points on a small sphere around the center of a nucleus.
 The printed electron density is the average electron density on these points.
 The radius of the sphere is the printed approximate finite nuclear radius.
 Note: density is calculated in the Dirac picture

         Atom        Nuclear Radius (Angstrom)             Electron Density (a.u.)
         ----        -------------------------             -----------------------
     1)   O                 0.0000345546                              312.91497
     2)   Ce                0.0000633998                           280671.42401
     3)   O                 0.0000345546                              312.27066
     4)   O                 0.0000345546                              312.96203
     5)   N                 0.0000333706                              205.30313
     6)   O                 0.0000345546                              313.10058
     7)   O                 0.0000345546                              312.91361
     8)   O                 0.0000345546                              312.26687
     9)   O                 0.0000345546                              312.99714
    10)   N                 0.0000333706                              205.30702
    11)   O                 0.0000345546                              313.07918
    12)   O                 0.0000345546                              312.87066
    13)   O                 0.0000345546                              312.29993
    14)   O                 0.0000345546                              312.93662
    15)   N                 0.0000333706                              205.30201
    16)   O                 0.0000345546                              313.08988
    17)   O                 0.0000345546                              312.91412
    18)   Ce                0.0000633998                           280669.62942
    19)   O                 0.0000345546                              312.26441
    20)   O                 0.0000345546                              312.21151
    21)   O                 0.0000345546                              312.90763
    22)   N                 0.0000333706                              205.30787
    23)   O                 0.0000345546                              313.08713
    24)   O                 0.0000345546                              312.97194
    25)   O                 0.0000345546                              312.29483
    26)   O                 0.0000345546                              312.95187
    27)   N                 0.0000333706                              205.30563
    28)   O                 0.0000345546                              313.13019
    29)   O                 0.0000345546                              312.94943
    30)   H                 0.0000181514                                0.43507
    31)   H                 0.0000181514                                0.45693
    32)   H                 0.0000181514                                0.46189
    33)   H                 0.0000181514                                0.45917
    34)   H                 0.0000181514                                0.45747
    35)   H                 0.0000181514                                0.45833
    36)   H                 0.0000181514                                0.46068
    37)   H                 0.0000181514                                0.46066
    38)   H                 0.0000181514                                0.46286
    39)   H                 0.0000181514                                0.45911
    40)   H                 0.0000181514                                0.45672
    41)   H                 0.0000181514                                0.46009



 =======================================
 M U L L I K E N   P O P U L A T I O N S
 =======================================
  
 The survey below gives for each atom:
 a) the total charge (Z minus electrons)
 b) the net spin polarization (nr of electrons spin-A minus spin-B)
 c) for each spin the atomic electron valence density (integrated) per L-value.

 Atom              Charge    Spin density          S         P         D         F
 ----              ------    ------------       ------    ------    ------    ------
 1 O              -0.8262                       3.8962    4.8996    0.0252    0.0052
 2 Ce              2.2450                      10.0064   23.9190   21.0466    0.7829
 3 O              -0.4855                       3.7248    4.7249    0.0323    0.0034
 4 O              -0.5652                       3.8693    4.6200    0.0677    0.0083
 5 N               0.9831                       3.0147    2.6867    0.2962    0.0192
 6 O              -0.3846                       3.8680    4.4334    0.0735    0.0097
 7 O              -0.5909                       3.8609    4.6551    0.0667    0.0083
 8 O              -0.4742                       3.7186    4.7203    0.0320    0.0034
 9 O              -0.5359                       3.8680    4.5905    0.0690    0.0084
 10 N              0.9655                       3.0190    2.7004    0.2958    0.0193
 11 O             -0.3968                       3.8654    4.4486    0.0732    0.0096
 12 O             -0.6381                       3.8686    4.6951    0.0664    0.0080
 13 O             -0.4462                       3.7270    4.6833    0.0325    0.0034
 14 O             -0.5724                       3.8641    4.6326    0.0674    0.0083
 15 N              0.9761                       3.0139    2.6933    0.2974    0.0193
 16 O             -0.3872                       3.8654    4.4388    0.0733    0.0097
 17 O             -0.5858                       3.8611    4.6493    0.0670    0.0084
 18 Ce             2.1627                       9.9882   23.9406   21.0868    0.8217
 19 O             -0.5382                       3.7412    4.7621    0.0314    0.0035
 20 O             -0.4706                       3.7097    4.7286    0.0290    0.0033
 21 O             -0.5793                       3.8681    4.6377    0.0654    0.0081
 22 N              0.9438                       3.0230    2.7166    0.2974    0.0192
 23 O             -0.3957                       3.8661    4.4471    0.0729    0.0096
 24 O             -0.5520                       3.8707    4.6046    0.0684    0.0083
 25 O             -0.4940                       3.7427    4.7159    0.0320    0.0034
 26 O             -0.5626                       3.8689    4.6187    0.0670    0.0081
 27 N              0.9659                       3.0200    2.6978    0.2970    0.0193
 28 O             -0.3614                       3.8683    4.4097    0.0737    0.0097
 29 O             -0.5688                       3.8670    4.6265    0.0671    0.0082
 30 H              0.3192                       0.5245    0.1429    0.0133    0.0000
 31 H              0.2616                       0.6180    0.1078    0.0126    0.0000
 32 H              0.2169                       0.6595    0.1111    0.0125    0.0000
 33 H              0.2471                       0.6297    0.1106    0.0126    0.0000
 34 H              0.2780                       0.6016    0.1077    0.0127    0.0000
 35 H              0.2442                       0.6298    0.1131    0.0129    0.0000
 36 H              0.2647                       0.6198    0.1034    0.0121    0.0000
 37 H              0.2385                       0.6385    0.1104    0.0126    0.0000
 38 H              0.2740                       0.6115    0.1025    0.0120    0.0000
 39 H              0.2610                       0.6216    0.1051    0.0124    0.0000
 40 H              0.3075                       0.5818    0.0986    0.0120    0.0000
 41 H              0.2567                       0.6259    0.1050    0.0123    0.0000

 Populations of individual BAS functions
 ----------------------------------------
 1 O            0.6751  1.2740  0.0242  0.9952  0.9278  0.2658  0.2687  0.2647  0.8606  0.8474
                0.8260  0.5447  0.5695  0.4521 -0.0117  0.0008  0.0053 -0.0113  0.0036  0.0386
               -0.0096 -0.0032 -0.0087 -0.0035  0.0001  0.0147 -0.0101 -0.0090  0.0148  0.0196
 3 O            0.6896  1.2600  0.0234  0.9936  0.7583  0.2486  0.2748  0.2913  0.9119  0.9341
                0.9938  0.2128  0.4320  0.4256  0.0112  0.0148  0.0059  0.0010  0.0045 -0.0052
                0.0007  0.0057  0.0044  0.0031  0.0007 -0.0030 -0.0008  0.0010 -0.0038 -0.0047
 4 O            0.6746  1.2793  0.0179  1.0167  0.8808  0.2983  0.2827  0.2130  0.9540  0.9029
                0.7280  0.4938  0.4871  0.2601  0.0043  0.0023  0.0141 -0.0044  0.0182  0.0333
               -0.0048 -0.0012 -0.0080 -0.0037  0.0003  0.0108 -0.0094 -0.0090  0.0131  0.0203
 6 O            0.6682  1.2933  0.0083  1.0395  0.8587  0.2341  0.2435  0.3060  0.8052  0.8347
                0.9905  0.2417  0.3471  0.4307  0.0262  0.0196  0.0199  0.0018  0.0061 -0.0000
                0.0145  0.0099  0.0112 -0.0058  0.0016 -0.0051 -0.0058 -0.0013 -0.0023 -0.0073
 7 O            0.6751  1.2787  0.0180  1.0145  0.8745  0.2378  0.2749  0.2844  0.7850  0.8791
                0.9157  0.3543  0.4753  0.4486  0.0200  0.0125  0.0224 -0.0019  0.0100  0.0036
                0.0076  0.0071  0.0080 -0.0055  0.0015  0.0006 -0.0076 -0.0037  0.0019 -0.0017
 8 O            0.6900  1.2596  0.0234  0.9945  0.7511  0.2361  0.2868  0.2921  0.8877  0.9894
                0.9643  0.1579  0.4251  0.4809  0.0185  0.0075  0.0127 -0.0024  0.0056 -0.0099
                0.0039  0.0059  0.0085 -0.0021  0.0010 -0.0016 -0.0035  0.0000 -0.0014 -0.0073
 9 O            0.6748  1.2797  0.0171  1.0210  0.8755  0.2746  0.2521  0.2647  0.8993  0.8343
                0.8623  0.4042  0.3673  0.4318  0.0056  0.0227  0.0123  0.0153  0.0122  0.0010
               -0.0003  0.0025  0.0023  0.0056  0.0017 -0.0026  0.0034  0.0046 -0.0033 -0.0055
 11 O           0.6686  1.2922  0.0091  1.0371  0.8584  0.3095  0.2229  0.2533  0.9990  0.7742
                0.8538  0.4499  0.2125  0.3735 -0.0025  0.0183  0.0035  0.0322  0.0211  0.0007
               -0.0095 -0.0083 -0.0037  0.0133  0.0010 -0.0013  0.0195  0.0126 -0.0075 -0.0066
 12 O           0.6744  1.2779  0.0201  1.0058  0.8904  0.2243  0.2931  0.2832  0.7583  0.9283
                0.8833  0.2963  0.4970  0.5313  0.0253  0.0160  0.0158  0.0042  0.0040  0.0010
                0.0145  0.0089  0.0092 -0.0053  0.0010 -0.0062 -0.0043 -0.0013 -0.0024 -0.0061
 13 O           0.6896  1.2601  0.0233  0.9955  0.7585  0.3045  0.2473  0.2599  1.0178  0.9150
                0.9234  0.4571  0.2129  0.3453 -0.0140  0.0067  0.0030  0.0162  0.0087  0.0119
               -0.0089 -0.0053 -0.0075  0.0064  0.0003  0.0036  0.0048  0.0021  0.0017  0.0062
 14 O           0.6747  1.2793  0.0177  1.0158  0.8765  0.2865  0.2500  0.2592  0.9232  0.8226
                0.8386  0.4588  0.3711  0.4226  0.0078  0.0137  0.0082  0.0127  0.0180  0.0070
               -0.0026 -0.0020 -0.0014  0.0042  0.0017  0.0003  0.0047  0.0045  0.0002 -0.0011
 16 O           0.6680  1.2937  0.0080  1.0392  0.8565  0.2200  0.2985  0.2660  0.7674  0.9723
                0.8898  0.1968  0.4414  0.3866  0.0347  0.0185  0.0225 -0.0033  0.0012 -0.0002
                0.0221  0.0145  0.0145 -0.0103  0.0003 -0.0081 -0.0100 -0.0043 -0.0019 -0.0072
 17 O           0.6754  1.2780  0.0185  1.0133  0.8759  0.2556  0.2621  0.2798  0.8375  0.8490
                0.8979  0.3880  0.4138  0.4657  0.0145  0.0208  0.0129  0.0097  0.0104 -0.0013
                0.0029  0.0047  0.0052  0.0031  0.0017 -0.0035  0.0020  0.0030 -0.0040 -0.0067
 19 O           0.6857  1.2657  0.0212  0.9911  0.7775  0.2445  0.2785  0.2918  0.9031  0.9300
                0.9965  0.2126  0.4772  0.4279  0.0139  0.0154  0.0051 -0.0021  0.0053 -0.0061
                0.0019  0.0077  0.0047  0.0026  0.0009 -0.0039 -0.0026  0.0012 -0.0037 -0.0053
 20 O           0.6881  1.2627  0.0220  0.9916  0.7453  0.3102  0.2608  0.2458  1.0355  0.9235
                0.8868  0.4964  0.3509  0.2188 -0.0167  0.0023  0.0008  0.0104  0.0116  0.0207
               -0.0096 -0.0084 -0.0088  0.0046  0.0001  0.0053  0.0059  0.0033  0.0036  0.0074
 21 O           0.6727  1.2817  0.0175  1.0121  0.8842  0.2710  0.2449  0.2772  0.8909  0.8179
                0.8916  0.3996  0.3597  0.4849  0.0059  0.0245  0.0115  0.0187  0.0093 -0.0045
                0.0008  0.0032  0.0036  0.0074  0.0015 -0.0053  0.0056  0.0065 -0.0063 -0.0089
 23 O           0.6685  1.2925  0.0089  1.0377  0.8586  0.3151  0.2236  0.2466  1.0151  0.7770
                0.8346  0.4568  0.2092  0.3690 -0.0033  0.0184  0.0026  0.0322  0.0223  0.0006
               -0.0102 -0.0086 -0.0041  0.0139  0.0008 -0.0010  0.0201  0.0132 -0.0081 -0.0064
 24 O           0.6732  1.2814  0.0171  1.0178  0.8812  0.2213  0.2952  0.2769  0.7577  0.9512
                0.8802  0.2645  0.4760  0.4818  0.0279  0.0162  0.0185  0.0054  0.0032 -0.0029
                0.0167  0.0102  0.0116 -0.0059  0.0007 -0.0078 -0.0042 -0.0011 -0.0036 -0.0084
 25 O           0.6858  1.2654  0.0214  0.9927  0.7774  0.2382  0.3091  0.2643  0.8949  1.0268
                0.9295  0.1855  0.4827  0.3850  0.0207  0.0018  0.0105 -0.0152  0.0054  0.0088
                0.0066  0.0047  0.0048 -0.0078  0.0004  0.0027 -0.0089 -0.0071  0.0048  0.0032
 26 O           0.6733  1.2816  0.0167  1.0170  0.8803  0.2888  0.2237  0.2790  0.9419  0.7613
                0.8961  0.4596  0.2824  0.4859  0.0078  0.0157  0.0029  0.0268  0.0183 -0.0045
               -0.0026 -0.0052 -0.0001  0.0094  0.0007 -0.0043  0.0158  0.0113 -0.0077 -0.0092
 28 O           0.6678  1.2945  0.0073  1.0431  0.8557  0.2237  0.3178  0.2395  0.7799  1.0271
                0.8284  0.2005  0.4555  0.3373  0.0330  0.0178  0.0238 -0.0035  0.0021  0.0006
                0.0207  0.0141  0.0136 -0.0094  0.0006 -0.0078 -0.0106 -0.0043 -0.0008 -0.0065
 29 O           0.6737  1.2808  0.0171  1.0169  0.8784  0.2455  0.2669  0.2796  0.8136  0.8833
                0.9024  0.3705  0.3821  0.4826  0.0174  0.0259  0.0092  0.0080  0.0117 -0.0051
                0.0052  0.0069  0.0062  0.0044  0.0015 -0.0070  0.0023  0.0047 -0.0063 -0.0097
 2 Ce           0.0189  0.2845  1.6192 -0.0051  2.0635  1.1780  0.5309  1.1566  1.1853  1.3999
                0.5816  0.0713 -0.0767 -0.0015  0.0105  0.0105  0.0105  0.3565  0.3565  0.3565
                1.6165  1.6165  1.6166  1.4413  1.4410  1.4412  0.5070  0.5073  0.5071  1.3732
                1.3729  1.3729  0.7694  0.7691  0.7700  1.4838  1.4789  1.4879  0.4736  0.4731
                0.4347  0.5516  0.8272  0.8273  0.5515  0.8271  0.5516  0.7889  1.1834  1.1833
                0.7889  1.1834  0.7888  0.7978  1.1963  1.1964  0.7980  1.1955  0.7986  0.5359
                0.8036  0.8037  0.5353  0.8039  0.5361  0.0706  0.0857  0.0981  0.0623  0.0698
                0.0922  0.1111  0.1423  0.1455  0.1042  0.1459  0.0891 -0.0060 -0.0293 -0.0427
               -0.0240 -0.0812 -0.0408  0.0085  0.0179  0.0084  0.0093  0.0071  0.0202  0.0067
                0.0085  0.0094  0.0082  0.0137  0.0401  0.0269  0.0267  0.0177  0.0529  0.0160
                0.0376  0.0271 -0.0003  0.0326  0.0579  0.0393  0.0363  0.0413  0.0667  0.0310
                0.0378  0.0518  0.0258 -0.0044 -0.0675 -0.0644
 18 Ce          0.0189  0.2846  1.6192 -0.0051  2.0636  1.1827  0.5230  1.1601  1.1851  1.3938
                0.5870  0.0435 -0.0665 -0.0016  0.0105  0.0105  0.0105  0.3566  0.3565  0.3565
                1.6165  1.6165  1.6167  1.4411  1.4412  1.4413  0.5076  0.5074  0.5075  1.3702
                1.3713  1.3689  0.7697  0.7697  0.7718  1.4593  1.4722  1.4612  0.4880  0.4807
                0.4342  0.5515  0.8272  0.8272  0.5516  0.8272  0.5519  0.7889  1.1833  1.1833
                0.7886  1.1833  0.7885  0.7979  1.1962  1.1949  0.7980  1.1947  0.7997  0.5342
[...]
     451        2.0293         0.000       
     450        1.9330         0.000       
     449        1.9330         0.000       
     448        1.7972         0.000       
     447        1.7972         0.000       
     446        1.7366         0.000       
     445        1.7366         0.000       
     444        1.4340         0.000       
     443        1.4340         0.000       
     442        1.3237         0.000       
     441        1.3237         0.000       
     440        1.1669         0.000       
     439        1.1669         0.000       
     438        0.7699         0.000       
     437        0.7699         0.000       
     436        0.6317         0.000       
     435        0.6317         0.000       
     434        0.4397         0.000       
     433        0.4397         0.000       
     432        0.3595         0.000       
     431        0.3595         0.000       
     430        0.1051         0.000       
     429        0.1051         0.000       
     428       -0.1025         0.000       
     427       -0.1025         0.000       
     426       -0.1848         0.000       
     425       -0.1848         0.000       
     424       -0.5388         0.000       
     423       -0.5388         0.000       
     422       -0.6579         0.000       
     421       -0.6579         0.000       
     420       -0.7658         0.000       
     419       -0.7658         0.000       
     418       -0.9863         0.000       
     417       -0.9863         0.000       
     416       -1.0454         0.000       
     415       -1.0454         0.000       
     414       -1.0836         0.000       
     413       -1.0836         0.000       
     412       -1.3079         0.000       
     411       -1.3079         0.000       
     410       -1.5042         0.000       
     409       -1.5042         0.000       
     408       -1.6123         0.000       
     407       -1.6123         0.000       
     406       -1.8476         0.000       
     405       -1.8476         0.000       
     404       -1.8811         0.000       
     403       -1.8811         0.000       
     402       -1.9878         0.000       
     401       -1.9878         0.000       
     400       -2.2653         0.000       
     399       -2.2653         0.000       
     398       -2.3149         0.000       
     397       -2.3149         0.000       
     396       -2.5296         0.000       
     395       -2.5296         0.000       
     394       -2.6140         0.000       
     393       -2.6140         0.000       
     392       -2.8659         0.000       
     391       -2.8659         0.000       
     390       -2.9931         0.000       
     389       -2.9931         0.000       
     388       -3.3161         0.000       
     387       -3.3161         0.000       
     386       -3.5524         0.000       
     385       -3.5524         0.000       
     384       -3.6968         0.000       
     383       -3.6968         0.000       
     382       -3.7881         0.000       
     381       -3.7881         0.000       
     380       -4.0405         0.000       
     379       -4.0405         0.000       
     378       -4.4185         0.000       
     377       -4.4185         0.000       
     376       -4.5911         0.000       
     375       -4.5911         0.000       
     374       -4.6983         0.000       
     373       -4.6983         0.000       
     372       -4.9006         0.000       
     371       -4.9006         0.000       
     370       -5.0035         0.000       
     369       -5.0035         0.000       
     368       -5.3167         0.000       
     367       -5.3167         0.000       
     366       -7.2256         0.000       
     365       -7.2256         0.000       
     364       -7.2985         0.000       
     363       -7.2985         0.000       
     362       -7.3419         0.000       
     361       -7.3419         0.000       
     360       -7.4073         0.000       
     359       -7.4073         0.000       
     358       -7.5457         0.000       
     357       -7.5457         0.000       
     356       -7.6341         0.000       
     355       -7.6341         0.000       
     354       -7.6757         0.000       
     353       -7.6757         0.000       
     352       -7.7213         0.000       
     351       -7.7213         0.000       
     350       -7.7557         0.000       
     349       -7.7557         0.000       
     348       -7.7815         0.000       
     347       -7.7815         0.000       
     346       -7.8163         0.000       
     345       -7.8163         0.000       
     344       -8.0332         0.000       
     343       -8.0332         0.000       
     342       -8.0593         0.000       
     341       -8.0593         0.000       
     340       -8.0946         0.000       
     339       -8.0946         0.000 < LUMO
     338      -11.4797         1.000 < HOMO
     337      -11.4797         1.000       
     336      -11.6909         1.000       
     335      -11.6909         1.000       
     334      -11.8697         1.000       
     333      -11.8697         1.000       
     332      -11.9600         1.000       
     331      -11.9600         1.000       
     330      -12.2750         1.000       
     329      -12.2750         1.000       
     328      -12.4410         1.000       
     327      -12.4410         1.000       
     326      -12.5025         1.000       
     325      -12.5025         1.000       
     324      -12.6344         1.000       
     323      -12.6344         1.000       
     322      -12.7198         1.000       
     321      -12.7198         1.000       
     320      -12.8184         1.000       
     319      -12.8184         1.000       
     318      -12.8479         1.000       
     317      -12.8479         1.000       
     316      -12.9257         1.000       
     315      -12.9257         1.000       
     314      -13.0185         1.000       
     313      -13.0185         1.000       
     312      -13.0873         1.000       
     311      -13.0873         1.000       
     310      -13.1303         1.000       
     309      -13.1303         1.000       
     308      -13.1457         1.000       
     307      -13.1457         1.000       
     306      -13.1962         1.000       
     305      -13.1962         1.000       
     304      -13.2388         1.000       
     303      -13.2388         1.000       
     302      -13.4375         1.000       
     301      -13.4375         1.000       
     300      -13.5130         1.000       
     299      -13.5130         1.000       
     298      -13.5725         1.000       
     297      -13.5725         1.000       
     296      -13.6425         1.000       
     295      -13.6425         1.000       
     294      -13.9012         1.000       
     293      -13.9012         1.000       
     292      -14.1102         1.000       
     291      -14.1102         1.000       
     290      -14.2017         1.000       
     289      -14.2017         1.000       
     288      -14.2882         1.000       
     287      -14.2882         1.000       
     286      -14.3634         1.000       
     285      -14.3634         1.000       
     284      -14.4235         1.000       
     283      -14.4235         1.000       
     282      -14.4566         1.000       
     281      -14.4566         1.000       
     280      -14.7681         1.000       
     279      -14.7681         1.000       
     278      -14.9090         1.000       
     277      -14.9090         1.000       
     276      -15.0824         1.000       
     275      -15.0824         1.000       
     274      -15.4000         1.000       
     273      -15.4000         1.000       
     272      -15.7746         1.000       
     271      -15.7746         1.000       
     270      -16.4979         1.000       
     269      -16.4979         1.000       
     268      -16.6415         1.000       
     267      -16.6415         1.000       
     266      -16.9461         1.000       
     265      -16.9461         1.000       
     264      -17.2842         1.000       
     263      -17.2842         1.000       
     262      -17.7069         1.000       
     261      -17.7069         1.000       
     260      -17.9724         1.000       
     259      -17.9724         1.000       
     258      -18.1917         1.000       
     257      -18.1917         1.000       
     256      -18.4519         1.000       
     255      -18.4519         1.000       
     254      -18.4889         1.000       
     253      -18.4889         1.000       
     252      -18.5538         1.000       
     251      -18.5538         1.000       
     250      -18.9247         1.000       
     249      -18.9247         1.000       
     248      -18.9399         1.000       
     247      -18.9399         1.000       
     246      -18.9476         1.000       
     245      -18.9476         1.000       
     244      -19.1888         1.000       
     243      -19.1888         1.000       
     242      -19.3915         1.000       
     241      -19.3915         1.000       
     240      -19.4115         1.000       
     239      -19.4115         1.000       
     238      -19.5225         1.000       
     237      -19.5225         1.000       
     236      -19.5619         1.000       
     235      -19.5619         1.000       
     234      -19.6349         1.000       
     233      -19.6349         1.000       
     232      -19.8113         1.000       
     231      -19.8113         1.000       
     230      -19.8788         1.000       
     229      -19.8788         1.000       
     228      -19.9662         1.000       
     227      -19.9662         1.000       
     226      -20.0874         1.000       
     225      -20.0874         1.000       
     224      -20.3094         1.000       
     223      -20.3094         1.000       
     222      -20.4977         1.000       
     221      -20.4977         1.000       
     220      -20.8594         1.000       
     219      -20.8594         1.000       
     218      -21.0001         1.000       
     217      -21.0001         1.000       
     216      -21.1823         1.000       
     215      -21.1823         1.000       
     214      -21.2893         1.000       
     213      -21.2893         1.000       
     212      -21.3813         1.000       
     211      -21.3813         1.000       
     210      -21.5116         1.000       
     209      -21.5116         1.000       
     208      -21.7532         1.000       
     207      -21.7532         1.000       
     206      -26.0595         1.000       
     205      -26.0595         1.000       
     204      -28.2302         1.000       
     203      -28.2302         1.000       
     202      -28.7778         1.000       
     201      -28.7778         1.000       
     200      -28.8518         1.000       
     199      -28.8518         1.000       
     198      -30.3468         1.000       
     197      -30.3468         1.000       
     196      -31.2994         1.000       
     195      -31.2994         1.000       
     194      -32.5574         1.000       
     193      -32.5574         1.000       
     192      -32.7915         1.000       
     191      -32.7915         1.000       
     190      -32.8653         1.000       
     189      -32.8653         1.000       
     188      -32.9662         1.000       
     187      -32.9662         1.000       
     186      -33.0777         1.000       
     185      -33.0777         1.000       
     184      -33.3490         1.000       
     183      -33.3490         1.000       
     182      -33.3599         1.000       
     181      -33.3599         1.000       
     180      -33.3745         1.000       
     179      -33.3745         1.000       
     178      -33.6183         1.000       
     177      -33.6183         1.000       
     176      -33.6479         1.000       
     175      -33.6479         1.000       
     174      -33.7260         1.000       
     173      -33.7260         1.000       
     172      -33.8266         1.000       
     171      -33.8266         1.000       
     170      -33.8613         1.000       
     169      -33.8613         1.000       
     168      -34.0722         1.000       
     167      -34.0722         1.000       
     166      -34.1875         1.000       
     165      -34.1875         1.000       
     164      -34.5062         1.000       
     163      -34.5062         1.000       
     162      -34.9749         1.000       
     161      -34.9749         1.000       
     160      -39.0208         1.000       
     159      -39.0208         1.000       
     158      -39.2965         1.000       
     157      -39.2965         1.000       
     156      -39.3321         1.000       
     155      -39.3321         1.000       
     154      -39.4375         1.000       
     153      -39.4375         1.000       
     152      -39.8121         1.000       
     151      -39.8121         1.000       
     150      -47.9793         1.000       
     149      -47.9793         1.000       
     148      -48.5203         1.000       
     147      -48.5203         1.000       
     146     -120.4321         1.000       
     145     -120.4321         1.000       
     144     -120.4734         1.000       
     143     -120.4734         1.000       
     142     -120.5100         1.000       
     141     -120.5100         1.000       
     140     -120.6923         1.000       
     139     -120.6923         1.000       
     138     -120.7333         1.000       
     137     -120.7333         1.000       
     136     -120.7643         1.000       
     135     -120.7643         1.000       
     134     -123.8017         1.000       
     133     -123.8017         1.000       
     132     -123.8571         1.000       
     131     -123.8571         1.000       
     130     -124.0582         1.000       
     129     -124.0582         1.000       
     128     -124.1125         1.000       
     127     -124.1125         1.000       
     126     -220.3185         1.000       
     125     -220.3185         1.000       
     124     -220.3881         1.000       
     123     -220.3881         1.000       
     122     -220.5414         1.000       
     121     -220.5414         1.000       
     120     -220.6241         1.000       
     119     -220.6241         1.000       
     118     -239.4922         1.000       
     117     -239.4922         1.000       
     116     -239.7136         1.000       
     115     -239.7136         1.000       
     114     -297.5213         1.000       
     113     -297.5213         1.000       
     112     -297.7344         1.000       
     111     -297.7344         1.000       
     110     -402.5964         1.000       
     109     -402.5964         1.000       
     108     -402.8605         1.000       
     107     -402.8605         1.000       
     106     -402.8798         1.000       
     105     -402.8798         1.000       
     104     -403.0080         1.000       
     103     -403.0080         1.000       
     102     -403.3721         1.000       
     101     -403.3721         1.000       
     100     -527.1265         1.000       
      99     -527.1265         1.000       
      98     -527.2633         1.000       
      97     -527.2633         1.000       
      96     -527.4721         1.000       
      95     -527.4721         1.000       
      94     -527.5077         1.000       
      93     -527.5077         1.000       
      92     -527.5338         1.000       
      91     -527.5338         1.000       
      90     -527.5623         1.000       
      89     -527.5623         1.000       
      88     -527.6794         1.000       
      87     -527.6794         1.000       
      86     -527.6844         1.000       
      85     -527.6844         1.000       
      84     -527.7242         1.000       
      83     -527.7242         1.000       
      82     -527.7251         1.000       
      81     -527.7251         1.000       
      80     -527.8609         1.000       
      79     -527.8609         1.000       
      78     -527.9618         1.000       
      77     -527.9618         1.000       
      76     -527.9952         1.000       
      75     -527.9952         1.000       
      74     -528.0256         1.000       
      73     -528.0256         1.000       
      72     -528.1774         1.000       
      71     -528.1774         1.000       
      70     -528.1790         1.000       
      69     -528.1790         1.000       
      68     -528.3041         1.000       
      67     -528.3041         1.000       
      66     -528.3188         1.000       
      65     -528.3188         1.000       
      64     -528.3910         1.000       
      63     -528.3910         1.000       
      62     -528.8056         1.000       
      61     -528.8056         1.000       
      60     -529.2365         1.000       
      59     -529.2365         1.000       
      58     -529.6364         1.000       
      57     -529.6364         1.000       
      56     -882.9590         1.000       
      55     -882.9590         1.000       
      54     -882.9964         1.000       
      53     -882.9964         1.000       
      52     -883.0148         1.000       
      51     -883.0148         1.000       
      50     -883.1229         1.000       
      49     -883.1229         1.000       
      48     -883.1725         1.000       
      47     -883.1725         1.000       
      46     -883.2157         1.000       
      45     -883.2157         1.000       
      44     -901.6156         1.000       
      43     -901.6156         1.000       
      42     -901.6565         1.000       
      41     -901.6565         1.000       
      40     -901.7841         1.000       
      39     -901.7841         1.000       
      38     -901.8513         1.000       
      37     -901.8513         1.000       
      36    -1172.7368         1.000       
      35    -1172.7368         1.000       
      34    -1172.7896         1.000       
      33    -1172.7896         1.000       
      32    -1172.8907         1.000       
      31    -1172.8907         1.000       
      30    -1172.9806         1.000       
      29    -1172.9806         1.000       
      28    -1260.9785         1.000       
      27    -1260.9785         1.000       
      26    -1261.1533         1.000       
      25    -1261.1533         1.000       
      24    -1414.9078         1.000       
      23    -1414.9078         1.000       
      22    -1415.0778         1.000       
      21    -1415.0778         1.000       
      20    -5677.1589         1.000       
      19    -5677.1589         1.000       
      18    -5677.1675         1.000       
      17    -5677.1675         1.000       
      16    -5677.4060         1.000       
      15    -5677.4060         1.000       
      14    -5677.4165         1.000       
      13    -5677.4165         1.000       
      12    -6123.4127         1.000       
      11    -6123.4127         1.000       
      10    -6123.6644         1.000       
       9    -6123.6644         1.000       
       8    -6489.3503         1.000       
       7    -6489.3503         1.000       
       6    -6489.5915         1.000       
       5    -6489.5915         1.000       
       4   -40326.5245         1.000       
       3   -40326.5245         1.000       
       2   -40326.8314         1.000       
       1   -40326.8314         1.000       

AMS application finished. Exiting.
NORMAL TERMINATION
     Total cpu time:    4520.01
  Total system time:     663.82
 Total elapsed time:    5189.17
