

 Parallel Execution: Process Information
 ==============================================================================
 Rank   Node Name                              NodeID   MyNodeRank  NodeMaster
    0   u-0-2.local                               0          0          0
    1   u-0-2.local                               0          1         -1
    2   u-0-2.local                               0          2         -1
    3   u-0-2.local                               0          3         -1
    4   u-0-2.local                               1          0          1
    5   u-0-2.local                               1          1         -1
    6   u-0-2.local                               1          2         -1
    7   u-0-2.local                               1          3         -1
    8   u-0-2.local                               2          0          2
    9   u-0-2.local                               2          1         -1
   10   u-0-2.local                               2          2         -1
   11   u-0-2.local                               2          3         -1
   12   u-0-2.local                               3          0          3
   13   u-0-2.local                               3          1         -1
   14   u-0-2.local                               3          2         -1
   15   u-0-2.local                               3          3         -1
 ==============================================================================


May use up to 31228MB of RAM as shared memory on node 0
May use up to 31250MB of RAM as shared memory on node 1
May use up to 31250MB of RAM as shared memory on node 2
May use up to 31250MB of RAM as shared memory on node 3

 *******************************************************************************
 *                                                                             *
 *  --------------------------------                                           *
 *   Amsterdam Modeling Suite (AMS)              2023.101                      *
 *  --------------------------------                                           *
 *                                               r111868 2023-03-31            *
 *                                                                             *
 *                                                                             *
 *                              =================                              *
 *                              |               |                              *
 *                              |     A M S     |                              *
 *                              |               |                              *
 *                              =================                              *
 *                                                                             *
 *                                                                             *
 *   Online information and documentation:  https://www.scm.com/support/       *
 *   E-mail:  support@scm.com   info@scm.com                                   *
 *                                                                             *
 *   Scientific publications using AMS results must be properly referenced     *
 *   See the User Manuals (or the web site) for recommended citations          *
 *   The terms and conditions of the End User License Agreement apply to       *
 *   the use of AMS, https://www.scm.com/license-terms/                        *
 *                                                                             *
 **********************  x86_64_linux_intel / intelmpi  ************************
 
 Licensed to: Dr. Val?rie Vallet / Laboratoire PhLAM UMR 8523 / Villeneuve d'Ascq Cedex / FRANCE 2023-12-11 15:27:25
 SCM User ID: u10325
  
 AMS 2023.101  RunTime: Feb15-2024 16:13:33  ShM Nodes: 4  Procs: 16

 AMS jobname: CeIII-O-CeIV.staggered.x2c-so.pbe0
 AMS jobid  : 1410185291

 Start   directory: /home/vallet/ANL/CeIV-dimer/CeIII-O-CeIV/staggered-structure-Ce-dinuclear/geom-pbe0-cosmo/sp-pbe0-SO/
 Results directory: /home/vallet/ANL/CeIV-dimer/CeIII-O-CeIV/staggered-structure-Ce-dinuclear/geom-pbe0-cosmo/sp-pbe0-SO/CeIII-O-CeIV.staggered.x2c-so.pbe0.results/
 Scratch directory: /state/partition2/vallet/1007694.phlam-s-sakura/amstmp_CeIII-O-CeIV.staggered.x2c-so.pbe0_kid0.1410185291/


 Communication costs MPI_COMM_WORLD:     -1.499 usec per message,   0.0463 usec per 8-byte item
 Communication costs for intra-node:      0.260 usec per message,   0.0089 usec per 8-byte item

 RNG seed: 34624764 1972400524 1223056955 714679978 1089649865 1614092144 -1462710761 733626717



                     *************************************************************************
                     *  ADF 2023.101  RunTime: Feb15-2024 16:13:34  ShM Nodes: 4  Procs: 16  *
                     *************************************************************************
  

       ****************************
       * SINGLE POINT CALCULATION *
       ****************************
 
--------
Geometry
--------
Formula: H12Ce2N6O25
Atoms
  Index Symbol   x (angstrom)   y (angstrom)   z (angstrom)
      1     Ce    -0.26342300     0.27462400    -2.04708000
      2     Ce     0.27838300    -0.28590300     2.15881800
      3      H     1.55230100    -1.00410400    -4.31977000
      4      H    -1.64677000     0.84835600     4.40803000
      5      H     0.11725000    -0.89508000    -4.87279300
      6      H    -0.22163600     0.83036200     4.98921300
      7      H    -2.75138200    -0.55796300    -3.82939100
      8      H     2.73624000     0.65235000     3.90096900
      9      H    -2.11465100     0.68216900    -4.48363700
     10      H     2.24131600    -0.66643500     4.51896000
     11      H    -0.11565100     2.98724700    -3.70412100
     12      H     0.15790800    -3.05987900     3.67774300
     13      H     0.37984200     1.85235200    -4.61999500
     14      H    -0.32747600    -1.96880200     4.64926200
     15      N     2.99383500    -1.16299400     1.13040700
     16      N    -2.95827200     1.31101000    -1.23246400
     17      N     0.17185200    -2.69094700    -2.00548300
     18      N    -0.24445400     2.71702500     2.10162200
     19      N     2.11058700     2.07043800    -1.67601000
     20      N    -2.06810100    -2.13782800     1.59795800
     21      O    -0.05503400     0.06306700    -0.19836200
     22      O     2.11654300    -1.99004600     1.48727100
     23      O    -1.98857400     2.06025100    -1.52755300
     24      O     2.70579900     0.05339300     1.23639600
     25      O    -2.76500100     0.07740000    -1.33387300
     26      O     4.07070300    -1.52779900     0.70158000
     27      O    -4.02060700     1.76741400    -0.86853400
     28      O     0.80363200    -0.40285100    -4.40517300
     29      O    -0.85089000     0.30878600     4.47631000
     30      O     1.15515800    -1.91770700    -1.95396800
     31      O    -1.18546400     1.90049500     1.96451000
     32      O    -0.96328200    -2.15327400    -2.11725600
     33      O     0.90543300     2.24058900     2.28110200
     34      O     0.29617300    -3.89542200    -1.94970600
     35      O    -0.43184900     3.91791600     2.06267700
     36      O    -1.90772200    -0.18174500    -4.10554200
     37      O     1.93836600     0.17187000     4.14982700
     38      O     0.95930000     2.49556000    -1.42603000
     39      O    -0.89886200    -2.50085100     1.32849200
     40      O     2.19220900     0.89763000    -2.13131300
     41      O    -2.20695200    -1.00550100     2.12896400
     42      O     3.10007800     2.74585000    -1.49147800
     43      O    -3.02709200    -2.84501600     1.35871500
     44      O    -0.32787000     2.09828000    -4.01086400
     45      O     0.35810600    -2.17428100     4.00157500
 
Total System Charge            -1.00000
Bonding info available!
 
 
----------------
ADF Engine Input
----------------
 
 Basis
 Type TZ2P
 Core None
 End
 XC
 Hybrid PBE0
 End
 Relativity
 Level Spin-Orbit
 Formalism X2C
 SpinOrbitMagnetization NonCollinear
 End
 Unrestricted Yes
 

 Title: *** (NO TITLE) ***

 *** adf ***



 ===========================
 A T T A C H E D   F I L E S
 ===========================
  



 ===============================
 M O D E L   P A R A M E T E R S
 ===============================
  
 DENSITY FUNCTIONAL POTENTIAL (scf)
    Hybrid:                            PBE0                                    == Not Default ==

 SPIN  (restricted / unrestr.)
    Molecule:                          UNrestricted                            == Not Default ==
    Fragments:                         Restricted                               

 OTHER ASPECTS
    Relativistic Corrections:          Spin-Orbit (X2C,MAPA)                   == Not Default ==
    Unrestricted Option:               Noncollinear approximation               *** SPECIAL ***

    Nuclear Charge Density Model:      Point Charge Nuclei                      
    Core Treatment:                    Frozen Orbital(s)                        

    Hyperfine or Zeeman Interaction:   ---                                      


 Fragment File(s)
 ----------------
 Ce:
         file : /home/vallet/ANL/CeIV-dimer/CeIII-O-CeIV/staggered-structure-Ce-dinuclear/geom-pbe0-cosmo/sp-pbe0-SO/CeIII-O-CeIV.staggered.x2c-so.pbe0.results/t21.190B7557.Ce
         jobid: 0
         title: Cerium (TZP, all electron)
 H:
         file : /home/vallet/ANL/CeIV-dimer/CeIII-O-CeIV/staggered-structure-Ce-dinuclear/geom-pbe0-cosmo/sp-pbe0-SO/CeIII-O-CeIV.staggered.x2c-so.pbe0.results/t21.62BC803D.H
         jobid: 0
         title: Hydrogen (TZ2P)
 N:
         file : /home/vallet/ANL/CeIV-dimer/CeIII-O-CeIV/staggered-structure-Ce-dinuclear/geom-pbe0-cosmo/sp-pbe0-SO/CeIII-O-CeIV.staggered.x2c-so.pbe0.results/t21.131ABD2B.N
         jobid: 0
         title: Nitrogen (TZ2P)
 O:
         file : /home/vallet/ANL/CeIV-dimer/CeIII-O-CeIV/staggered-structure-Ce-dinuclear/geom-pbe0-cosmo/sp-pbe0-SO/CeIII-O-CeIV.staggered.x2c-so.pbe0.results/t21.5810AA2E.O
         jobid: 0
         title: Oxygen (TZ2P)



 ===============
 G E O M E T R Y  ***  3D  Molecule  ***
 ===============
  

 ATOMS
 =====                            X Y Z                    CHARGE
                                (Angstrom)             Nucl     +Core       At.Mass
                       --------------------------    ----------------       -------
    1  Ce             -0.2634    0.2746   -2.0471     58.00     58.00      139.9054
    2  Ce              0.2784   -0.2859    2.1588     58.00     58.00      139.9054
    3  H               1.5523   -1.0041   -4.3198      1.00      1.00        1.0078
    4  H              -1.6468    0.8484    4.4080      1.00      1.00        1.0078
    5  H               0.1172   -0.8951   -4.8728      1.00      1.00        1.0078
    6  H              -0.2216    0.8304    4.9892      1.00      1.00        1.0078
    7  H              -2.7514   -0.5580   -3.8294      1.00      1.00        1.0078
    8  H               2.7362    0.6523    3.9010      1.00      1.00        1.0078
    9  H              -2.1147    0.6822   -4.4836      1.00      1.00        1.0078
   10  H               2.2413   -0.6664    4.5190      1.00      1.00        1.0078
   11  H              -0.1157    2.9872   -3.7041      1.00      1.00        1.0078
   12  H               0.1579   -3.0599    3.6777      1.00      1.00        1.0078
   13  H               0.3798    1.8524   -4.6200      1.00      1.00        1.0078
   14  H              -0.3275   -1.9688    4.6493      1.00      1.00        1.0078
   15  N               2.9938   -1.1630    1.1304      7.00      7.00       14.0031
   16  N              -2.9583    1.3110   -1.2325      7.00      7.00       14.0031
   17  N               0.1719   -2.6909   -2.0055      7.00      7.00       14.0031
   18  N              -0.2445    2.7170    2.1016      7.00      7.00       14.0031
   19  N               2.1106    2.0704   -1.6760      7.00      7.00       14.0031
   20  N              -2.0681   -2.1378    1.5980      7.00      7.00       14.0031
   21  O              -0.0550    0.0631   -0.1984      8.00      8.00       15.9949
   22  O               2.1165   -1.9900    1.4873      8.00      8.00       15.9949
   23  O              -1.9886    2.0603   -1.5276      8.00      8.00       15.9949
   24  O               2.7058    0.0534    1.2364      8.00      8.00       15.9949
   25  O              -2.7650    0.0774   -1.3339      8.00      8.00       15.9949
   26  O               4.0707   -1.5278    0.7016      8.00      8.00       15.9949
   27  O              -4.0206    1.7674   -0.8685      8.00      8.00       15.9949
   28  O               0.8036   -0.4029   -4.4052      8.00      8.00       15.9949
   29  O              -0.8509    0.3088    4.4763      8.00      8.00       15.9949
   30  O               1.1552   -1.9177   -1.9540      8.00      8.00       15.9949
   31  O              -1.1855    1.9005    1.9645      8.00      8.00       15.9949
   32  O              -0.9633   -2.1533   -2.1173      8.00      8.00       15.9949
   33  O               0.9054    2.2406    2.2811      8.00      8.00       15.9949
   34  O               0.2962   -3.8954   -1.9497      8.00      8.00       15.9949
   35  O              -0.4318    3.9179    2.0627      8.00      8.00       15.9949
   36  O              -1.9077   -0.1817   -4.1055      8.00      8.00       15.9949
   37  O               1.9384    0.1719    4.1498      8.00      8.00       15.9949
   38  O               0.9593    2.4956   -1.4260      8.00      8.00       15.9949
   39  O              -0.8989   -2.5009    1.3285      8.00      8.00       15.9949
   40  O               2.1922    0.8976   -2.1313      8.00      8.00       15.9949
   41  O              -2.2070   -1.0055    2.1290      8.00      8.00       15.9949
   42  O               3.1001    2.7458   -1.4915      8.00      8.00       15.9949
   43  O              -3.0271   -2.8450    1.3587      8.00      8.00       15.9949
   44  O              -0.3279    2.0983   -4.0109      8.00      8.00       15.9949
   45  O               0.3581   -2.1743    4.0016      8.00      8.00       15.9949


 FRAGMENTS
 =========                                     Atoms in this Fragment     Cart. coord.s (Angstrom)
                                               -------------------------------------------------------
    1  Ce                                                1  Ce          -0.2634    0.2746   -2.0471
    2  Ce                                                2  Ce           0.2784   -0.2859    2.1588
    3  H                                                 3  H            1.5523   -1.0041   -4.3198
    4  H                                                 4  H           -1.6468    0.8484    4.4080
    5  H                                                 5  H            0.1172   -0.8951   -4.8728
    6  H                                                 6  H           -0.2216    0.8304    4.9892
    7  H                                                 7  H           -2.7514   -0.5580   -3.8294
    8  H                                                 8  H            2.7362    0.6523    3.9010
    9  H                                                 9  H           -2.1147    0.6822   -4.4836
   10  H                                                10  H            2.2413   -0.6664    4.5190
   11  H                                                11  H           -0.1157    2.9872   -3.7041
   12  H                                                12  H            0.1579   -3.0599    3.6777
   13  H                                                13  H            0.3798    1.8524   -4.6200
   14  H                                                14  H           -0.3275   -1.9688    4.6493
   15  N                                                15  N            2.9938   -1.1630    1.1304
   16  N                                                16  N           -2.9583    1.3110   -1.2325
   17  N                                                17  N            0.1719   -2.6909   -2.0055
   18  N                                                18  N           -0.2445    2.7170    2.1016
   19  N                                                19  N            2.1106    2.0704   -1.6760
   20  N                                                20  N           -2.0681   -2.1378    1.5980
   21  O                                                21  O           -0.0550    0.0631   -0.1984
   22  O                                                22  O            2.1165   -1.9900    1.4873
   23  O                                                23  O           -1.9886    2.0603   -1.5276
   24  O                                                24  O            2.7058    0.0534    1.2364
   25  O                                                25  O           -2.7650    0.0774   -1.3339
   26  O                                                26  O            4.0707   -1.5278    0.7016
   27  O                                                27  O           -4.0206    1.7674   -0.8685
   28  O                                                28  O            0.8036   -0.4029   -4.4052
   29  O                                                29  O           -0.8509    0.3088    4.4763
   30  O                                                30  O            1.1552   -1.9177   -1.9540
   31  O                                                31  O           -1.1855    1.9005    1.9645
   32  O                                                32  O           -0.9633   -2.1533   -2.1173
   33  O                                                33  O            0.9054    2.2406    2.2811
   34  O                                                34  O            0.2962   -3.8954   -1.9497
   35  O                                                35  O           -0.4318    3.9179    2.0627
   36  O                                                36  O           -1.9077   -0.1817   -4.1055
   37  O                                                37  O            1.9384    0.1719    4.1498
   38  O                                                38  O            0.9593    2.4956   -1.4260
   39  O                                                39  O           -0.8989   -2.5009    1.3285
   40  O                                                40  O            2.1922    0.8976   -2.1313
   41  O                                                41  O           -2.2070   -1.0055    2.1290
   42  O                                                42  O            3.1001    2.7458   -1.4915
   43  O                                                43  O           -3.0271   -2.8450    1.3587
   44  O                                                44  O           -0.3279    2.0983   -4.0109
   45  O                                                45  O            0.3581   -2.1743    4.0016



 =====================================
 S Y M M E T R Y ,   E L E C T R O N S
 =====================================
  
 Symmetry: NOSYM

 Double Group Irreducible Representations (spinor symmetry)
 -----------------------------------------------------------
 A1/2

 Symmetry is NOT used when fitting density


 Configuration of Valence Electrons
 ==================================
 ( determined in the SCF procedure )

 Total:   371

 Net Charge: -1 (Nuclei minus Electrons)

 Aufbau principle for MO occupations will be applied through SCF cycle no.     150
 Thereafter, the program will assign electrons to MOs that are spatially
 similar to the occupied MOs in a "reference" cycle ("KeepOrbitals").
 The reference cycle is always the PREVIOUS cycle: it will evolve with
 the SCF procedure.
1
 ***************************************************************************************************



                                      ****************************************
                                      *  B U I L D : (Fragments, Functions)  *
                                      ****************************************
  

 Total nr. of (C)SFOs (summation over all irreps) :  1138

 Specify PRINT SFO in the input file to get a full list

 Nr. of SFOs for ir.rep.           A :  1138



 ================================
 (Slater-type)  F U N C T I O N S  ***  (Basis and Fit)  ***
 ================================
  

 Atom Type    1  (Ce)
 ==============

 Valence Basis Sets:  34
 -----------------------
   1 S  452.000000
   1 S  112.400000
   1 S   59.900000
   2 S   67.200000
   2 S   25.900000
   3 S   13.850000
   3 S   11.000000
   4 S   10.500000
   4 S    6.600000
   5 S    4.300000
   5 S    2.800000
   6 S    1.950000
   6 S    1.250000
   6 S    0.820000
   2 P  112.400000
   2 P   40.100000
   2 P   24.950000
   3 P   14.600000
   3 P   11.200000
   4 P    8.300000
   4 P    5.650000
   5 P    3.650000
   5 P    2.250000
   3 D   18.900000
   3 D   11.500000
   4 D    7.550000
   4 D    4.650000
   5 D    2.900000
   5 D    1.600000
   5 D    0.900000
   4 F    8.150000
   4 F    3.800000
   4 F    1.650000
   6 P    1.250000

 Charge Fitting Sets (for the computation of the Coulomb Potential):  73
 -----------------------------------------------------------------------
   1 S  904.000000
   1 S  677.300000
   1 S  507.450000
   1 S  380.195000
   1 S  284.852000
   1 S  213.418000
   1 S  159.898000
   1 S  119.800000
   1 S   71.430000
   2 S   78.880000
   2 S   52.890000
   3 S   52.070000
   3 S   37.160000
   4 S   35.060000
   4 S   26.040000
   5 S   24.090000
   5 S   18.410000
   6 S   16.860000
   6 S   13.160000
   7 S   11.990000
   7 S    9.520000
   8 S    8.650000
   8 S    6.960000
   9 S    6.310000
   9 S    5.150000
  10 S    4.660000
  10 S    3.840000
  10 S    3.160000
  11 S    2.860000
  11 S    2.380000
  11 S    1.970000
  11 S    1.640000
   2 P   84.850000
   3 P   69.680000
   4 P   56.300000
   5 P   45.370000
   5 P   30.410000
   6 P   24.560000
   6 P   17.000000
   7 P   13.780000
   7 P    9.790000
   8 P    7.970000
   8 P    5.780000
   9 P    4.730000
   9 P    3.490000
  10 P    2.870000
  10 P    2.150000
   3 D   71.400000
   4 D   50.910000
   5 D   36.700000
   6 D   26.770000
   7 D   19.760000
   7 D   12.810000
   8 D    9.560000
   8 D    6.360000
   9 D    4.790000
   9 D    3.260000
  10 D    2.480000
  10 D    1.720000
   4 F   63.700000
   5 F   39.060000
   6 F   24.580000
   7 F   15.830000
   8 F   10.400000
   8 F    6.110000
   9 F    4.080000
   9 F    2.470000
   5 G   28.750000
   6 G   16.000000
   7 G    9.190000
   8 G    5.430000
   9 G    3.280000
   9 G    1.800000

 Atom Type    2  (H)
 ==============

 Valence Basis Sets:   5
 -----------------------
   1 S    0.690000
   1 S    0.920000
   1 S    1.580000
   2 P    1.250000
   3 D    2.500000

 Charge Fitting Sets (for the computation of the Coulomb Potential):  11
 -----------------------------------------------------------------------
   1 S    3.160000
   1 S    2.090000
   1 S    1.380000
   2 S    1.500000
   2 P    4.000000
   2 P    2.650000
   2 P    1.750000
   3 D    4.000000
   3 D    2.500000
   4 F    3.000000
   5 G    4.000000

 Atom Type    3  (N)
 ==============

 Valence Basis Sets:  10
 -----------------------
   1 S    8.740000
   1 S    5.900000
   2 S    5.150000
   2 S    2.500000
   2 S    1.500000
   2 P    3.680000
   2 P    1.880000
   2 P    1.000000
   3 D    2.200000
   4 F    3.300000

 Charge Fitting Sets (for the computation of the Coulomb Potential):  22
 -----------------------------------------------------------------------
   1 S   17.480000
   2 S   20.150000
   2 S   13.990000
   2 S    9.710000
   2 S    6.740000
   3 S    6.860000
   3 S    5.040000
   3 S    3.700000
   3 S    2.720000
   3 S    2.000000
   2 P   11.320000
   2 P    6.730000
   3 P    5.920000
   3 P    3.820000
   3 P    2.460000
   3 D    8.100000
   3 D    5.080000
   3 D    3.190000
   3 D    2.000000
   4 F    5.800000
   4 F    3.600000
   5 G    4.500000

 Atom Type    4  (O)
 ==============

 Valence Basis Sets:  10
 -----------------------
   1 S    9.800000
   1 S    6.800000
   2 S    7.580000
   2 S    2.880000
   2 S    1.720000
   2 P    4.080000
   2 P    2.080000
   2 P    1.120000
   3 D    2.000000
   4 F    3.000000

 Charge Fitting Sets (for the computation of the Coulomb Potential):  22
 -----------------------------------------------------------------------
   1 S   19.600000
   2 S   22.600000
   2 S   15.680000
   2 S   10.890000
   2 S    7.560000
   3 S    7.690000
   3 S    5.650000
   3 S    4.150000
   3 S    3.050000
   3 S    2.240000
   2 P   12.860000
   2 P    7.680000
   3 P    6.780000
   3 P    4.390000
   3 P    2.840000
   3 D    8.800000
   3 D    5.580000
   3 D    3.530000
   3 D    2.240000
   4 F    6.200000
   4 F    3.700000
   5 G    4.500000


 BAS: List of all Elementary Cartesian Basis Functions
 =====================================================

 The numbering in the list below (to the right of the function characteristics) is referred
 to in print-outs of MO eigenvectors and Mulliken populations in the BAS representation
 (as contrasted to the SFO representation).

 Notes:
 1. The functions are characterized by a polynomial prefactor (powers of x,y,z and r) and
    an exponential decay factor alpha.
 2. Since the basis sets are specific for an atom TYPE, the individual functions occur on
    all atoms of that type.
 3. The word 'Core' in the left margin signals that it is a Core Function (CF) : not a
    degree of freedom in the valence set, but only used to ensure orthogonalization of
    the other valence basis functions on the frozen Core Orbitals.


 (power of) X  Y  Z  R     Alpha  on Atom
            ==========     =====     ==========

 Ce                                   1    2
                                  ---------------------------------------------------------------------------
            0  0  0  0   452.000      1  117
            0  0  0  0   112.400      2  118
            0  0  0  0    59.900      3  119
            0  0  0  1    67.200      4  120
            0  0  0  1    25.900      5  121
            0  0  0  2    13.850      6  122
            0  0  0  2    11.000      7  123
            0  0  0  3    10.500      8  124
            0  0  0  3     6.600      9  125
            0  0  0  4     4.300     10  126
            0  0  0  4     2.800     11  127
            0  0  0  5     1.950     12  128
            0  0  0  5     1.250     13  129
            0  0  0  5     0.820     14  130
            1  0  0  0   112.400     15  131
            0  1  0  0   112.400     16  132
            0  0  1  0   112.400     17  133
            1  0  0  0    40.100     18  134
            0  1  0  0    40.100     19  135
            0  0  1  0    40.100     20  136
            1  0  0  0    24.950     21  137
            0  1  0  0    24.950     22  138
            0  0  1  0    24.950     23  139
            1  0  0  1    14.600     24  140
            0  1  0  1    14.600     25  141
            0  0  1  1    14.600     26  142
            1  0  0  1    11.200     27  143
            0  1  0  1    11.200     28  144
            0  0  1  1    11.200     29  145
            1  0  0  2     8.300     30  146
            0  1  0  2     8.300     31  147
            0  0  1  2     8.300     32  148
            1  0  0  2     5.650     33  149
            0  1  0  2     5.650     34  150
            0  0  1  2     5.650     35  151
            1  0  0  3     3.650     36  152
            0  1  0  3     3.650     37  153
            0  0  1  3     3.650     38  154
            1  0  0  3     2.250     39  155
            0  1  0  3     2.250     40  156
            0  0  1  3     2.250     41  157
            2  0  0  0    18.900     42  158
            1  1  0  0    18.900     43  159
            1  0  1  0    18.900     44  160
            0  2  0  0    18.900     45  161
            0  1  1  0    18.900     46  162
            0  0  2  0    18.900     47  163
            2  0  0  0    11.500     48  164
            1  1  0  0    11.500     49  165
            1  0  1  0    11.500     50  166
            0  2  0  0    11.500     51  167
            0  1  1  0    11.500     52  168
            0  0  2  0    11.500     53  169
            2  0  0  1     7.550     54  170
            1  1  0  1     7.550     55  171
            1  0  1  1     7.550     56  172
            0  2  0  1     7.550     57  173
            0  1  1  1     7.550     58  174
            0  0  2  1     7.550     59  175
            2  0  0  1     4.650     60  176
            1  1  0  1     4.650     61  177
            1  0  1  1     4.650     62  178
            0  2  0  1     4.650     63  179
            0  1  1  1     4.650     64  180
            0  0  2  1     4.650     65  181
            2  0  0  2     2.900     66  182
            1  1  0  2     2.900     67  183
            1  0  1  2     2.900     68  184
            0  2  0  2     2.900     69  185
            0  1  1  2     2.900     70  186
            0  0  2  2     2.900     71  187
            2  0  0  2     1.600     72  188
            1  1  0  2     1.600     73  189
            1  0  1  2     1.600     74  190
            0  2  0  2     1.600     75  191
            0  1  1  2     1.600     76  192
            0  0  2  2     1.600     77  193
            2  0  0  2     0.900     78  194
            1  1  0  2     0.900     79  195
            1  0  1  2     0.900     80  196
            0  2  0  2     0.900     81  197
            0  1  1  2     0.900     82  198
            0  0  2  2     0.900     83  199
            3  0  0  0     8.150     84  200
            2  1  0  0     8.150     85  201
            2  0  1  0     8.150     86  202
            1  2  0  0     8.150     87  203
            1  1  1  0     8.150     88  204
            1  0  2  0     8.150     89  205
            0  3  0  0     8.150     90  206
            0  2  1  0     8.150     91  207
            0  1  2  0     8.150     92  208
            0  0  3  0     8.150     93  209
            3  0  0  0     3.800     94  210
            2  1  0  0     3.800     95  211
            2  0  1  0     3.800     96  212
            1  2  0  0     3.800     97  213
            1  1  1  0     3.800     98  214
            1  0  2  0     3.800     99  215
            0  3  0  0     3.800    100  216
            0  2  1  0     3.800    101  217
            0  1  2  0     3.800    102  218
            0  0  3  0     3.800    103  219
            3  0  0  0     1.650    104  220
            2  1  0  0     1.650    105  221
            2  0  1  0     1.650    106  222
            1  2  0  0     1.650    107  223
            1  1  1  0     1.650    108  224
            1  0  2  0     1.650    109  225
            0  3  0  0     1.650    110  226
            0  2  1  0     1.650    111  227
            0  1  2  0     1.650    112  228
            0  0  3  0     1.650    113  229
            1  0  0  4     1.250    114  230
            0  1  0  4     1.250    115  231
            0  0  1  4     1.250    116  232

 H                                    3    4    5    6    7    8    9   10   11   12   13   14
                                  ---------------------------------------------------------------------------
            0  0  0  0     0.690    233  245  257  269  281  293  305  317  329  341  353  365
            0  0  0  0     0.920    234  246  258  270  282  294  306  318  330  342  354  366
            0  0  0  0     1.580    235  247  259  271  283  295  307  319  331  343  355  367
            1  0  0  0     1.250    236  248  260  272  284  296  308  320  332  344  356  368
            0  1  0  0     1.250    237  249  261  273  285  297  309  321  333  345  357  369
            0  0  1  0     1.250    238  250  262  274  286  298  310  322  334  346  358  370
            2  0  0  0     2.500    239  251  263  275  287  299  311  323  335  347  359  371
            1  1  0  0     2.500    240  252  264  276  288  300  312  324  336  348  360  372
            1  0  1  0     2.500    241  253  265  277  289  301  313  325  337  349  361  373
            0  2  0  0     2.500    242  254  266  278  290  302  314  326  338  350  362  374
            0  1  1  0     2.500    243  255  267  279  291  303  315  327  339  351  363  375
            0  0  2  0     2.500    244  256  268  280  292  304  316  328  340  352  364  376

 N                                   15   16   17   18   19   20
                                  ---------------------------------------------------------------------------
            0  0  0  0     8.740    377  407  437  467  497  527
            0  0  0  0     5.900    378  408  438  468  498  528
            0  0  0  1     5.150    379  409  439  469  499  529
            0  0  0  1     2.500    380  410  440  470  500  530
            0  0  0  1     1.500    381  411  441  471  501  531
            1  0  0  0     3.680    382  412  442  472  502  532
            0  1  0  0     3.680    383  413  443  473  503  533
            0  0  1  0     3.680    384  414  444  474  504  534
            1  0  0  0     1.880    385  415  445  475  505  535
            0  1  0  0     1.880    386  416  446  476  506  536
            0  0  1  0     1.880    387  417  447  477  507  537
            1  0  0  0     1.000    388  418  448  478  508  538
            0  1  0  0     1.000    389  419  449  479  509  539
            0  0  1  0     1.000    390  420  450  480  510  540
            2  0  0  0     2.200    391  421  451  481  511  541
            1  1  0  0     2.200    392  422  452  482  512  542
            1  0  1  0     2.200    393  423  453  483  513  543
            0  2  0  0     2.200    394  424  454  484  514  544
            0  1  1  0     2.200    395  425  455  485  515  545
            0  0  2  0     2.200    396  426  456  486  516  546
            3  0  0  0     3.300    397  427  457  487  517  547
            2  1  0  0     3.300    398  428  458  488  518  548
            2  0  1  0     3.300    399  429  459  489  519  549
            1  2  0  0     3.300    400  430  460  490  520  550
            1  1  1  0     3.300    401  431  461  491  521  551
            1  0  2  0     3.300    402  432  462  492  522  552
            0  3  0  0     3.300    403  433  463  493  523  553
            0  2  1  0     3.300    404  434  464  494  524  554
            0  1  2  0     3.300    405  435  465  495  525  555
            0  0  3  0     3.300    406  436  466  496  526  556

 O                                   21   22   23   24   25   26   27   28   29   30   31   32   33   34   35
                                     36   37   38   39   40   41   42   43   44   45
                                  ---------------------------------------------------------------------------
            0  0  0  0     9.800    557  587  617  647  677  707  737  767  797  827  857  887  917  947  977
                                   1007 1037 1067 1097 1127 1157 1187 1217 1247 1277
            0  0  0  0     6.800    558  588  618  648  678  708  738  768  798  828  858  888  918  948  978
                                   1008 1038 1068 1098 1128 1158 1188 1218 1248 1278
            0  0  0  1     7.580    559  589  619  649  679  709  739  769  799  829  859  889  919  949  979
                                   1009 1039 1069 1099 1129 1159 1189 1219 1249 1279
            0  0  0  1     2.880    560  590  620  650  680  710  740  770  800  830  860  890  920  950  980
                                   1010 1040 1070 1100 1130 1160 1190 1220 1250 1280
            0  0  0  1     1.720    561  591  621  651  681  711  741  771  801  831  861  891  921  951  981
                                   1011 1041 1071 1101 1131 1161 1191 1221 1251 1281
            1  0  0  0     4.080    562  592  622  652  682  712  742  772  802  832  862  892  922  952  982
                                   1012 1042 1072 1102 1132 1162 1192 1222 1252 1282
            0  1  0  0     4.080    563  593  623  653  683  713  743  773  803  833  863  893  923  953  983
                                   1013 1043 1073 1103 1133 1163 1193 1223 1253 1283
            0  0  1  0     4.080    564  594  624  654  684  714  744  774  804  834  864  894  924  954  984
                                   1014 1044 1074 1104 1134 1164 1194 1224 1254 1284
            1  0  0  0     2.080    565  595  625  655  685  715  745  775  805  835  865  895  925  955  985
                                   1015 1045 1075 1105 1135 1165 1195 1225 1255 1285
            0  1  0  0     2.080    566  596  626  656  686  716  746  776  806  836  866  896  926  956  986
                                   1016 1046 1076 1106 1136 1166 1196 1226 1256 1286
            0  0  1  0     2.080    567  597  627  657  687  717  747  777  807  837  867  897  927  957  987
                                   1017 1047 1077 1107 1137 1167 1197 1227 1257 1287
            1  0  0  0     1.120    568  598  628  658  688  718  748  778  808  838  868  898  928  958  988
                                   1018 1048 1078 1108 1138 1168 1198 1228 1258 1288
            0  1  0  0     1.120    569  599  629  659  689  719  749  779  809  839  869  899  929  959  989
                                   1019 1049 1079 1109 1139 1169 1199 1229 1259 1289
            0  0  1  0     1.120    570  600  630  660  690  720  750  780  810  840  870  900  930  960  990
                                   1020 1050 1080 1110 1140 1170 1200 1230 1260 1290
            2  0  0  0     2.000    571  601  631  661  691  721  751  781  811  841  871  901  931  961  991
                                   1021 1051 1081 1111 1141 1171 1201 1231 1261 1291
            1  1  0  0     2.000    572  602  632  662  692  722  752  782  812  842  872  902  932  962  992
                                   1022 1052 1082 1112 1142 1172 1202 1232 1262 1292
            1  0  1  0     2.000    573  603  633  663  693  723  753  783  813  843  873  903  933  963  993
                                   1023 1053 1083 1113 1143 1173 1203 1233 1263 1293
            0  2  0  0     2.000    574  604  634  664  694  724  754  784  814  844  874  904  934  964  994
                                   1024 1054 1084 1114 1144 1174 1204 1234 1264 1294
            0  1  1  0     2.000    575  605  635  665  695  725  755  785  815  845  875  905  935  965  995
                                   1025 1055 1085 1115 1145 1175 1205 1235 1265 1295
            0  0  2  0     2.000    576  606  636  666  696  726  756  786  816  846  876  906  936  966  996
                                   1026 1056 1086 1116 1146 1176 1206 1236 1266 1296
            3  0  0  0     3.000    577  607  637  667  697  727  757  787  817  847  877  907  937  967  997
                                   1027 1057 1087 1117 1147 1177 1207 1237 1267 1297
            2  1  0  0     3.000    578  608  638  668  698  728  758  788  818  848  878  908  938  968  998
                                   1028 1058 1088 1118 1148 1178 1208 1238 1268 1298
            2  0  1  0     3.000    579  609  639  669  699  729  759  789  819  849  879  909  939  969  999
                                   1029 1059 1089 1119 1149 1179 1209 1239 1269 1299
            1  2  0  0     3.000    580  610  640  670  700  730  760  790  820  850  880  910  940  970 1000
                                   1030 1060 1090 1120 1150 1180 1210 1240 1270 1300
            1  1  1  0     3.000    581  611  641  671  701  731  761  791  821  851  881  911  941  971 1001
                                   1031 1061 1091 1121 1151 1181 1211 1241 1271 1301
            1  0  2  0     3.000    582  612  642  672  702  732  762  792  822  852  882  912  942  972 1002
                                   1032 1062 1092 1122 1152 1182 1212 1242 1272 1302
            0  3  0  0     3.000    583  613  643  673  703  733  763  793  823  853  883  913  943  973 1003
                                   1033 1063 1093 1123 1153 1183 1213 1243 1273 1303
            0  2  1  0     3.000    584  614  644  674  704  734  764  794  824  854  884  914  944  974 1004
                                   1034 1064 1094 1124 1154 1184 1214 1244 1274 1304
            0  1  2  0     3.000    585  615  645  675  705  735  765  795  825  855  885  915  945  975 1005
                                   1035 1065 1095 1125 1155 1185 1215 1245 1275 1305
            0  0  3  0     3.000    586  616  646  676  706  736  766  796  826  856  886  916  946  976 1006
                                   1036 1066 1096 1126 1156 1186 1216 1246 1276 1306

 Total number of charge fitting functions (nprimf)      3842
 Total number of Cartesian basis functions (naos)       1306
 Total number of Cartesian core functions  (ncos)          0

1
 ***************************************************************************************************



                                              ***********************
                                              *  T E C H N I C A L  *
                                              ***********************
  



 =============================================================
 P A R A L L E L I Z A T I O N  and  V E C T O R I Z A T I O N
 =============================================================
  
 Nr of parallel processes:                               16
 Maximum vector length in NumInt loops:                 128



 =====================
 S C F   U P D A T E S
 =====================
  
 Max. nr. of cycles:                               300
 Convergence criterion:                              0.0000010000
   secondary criterion:                              0.0010000000

 Mix parameter (when DIIS does not apply):           0.2000000000
 Mixed ADIIS+SDIIS will be used                  
    Max number of expansion vectors:                10
    Pure ADIIS when Max([F,P]) is above              0.1000000000
    Pure SDIIS when Max([F,P]) is below              0.0010000000
 Automatic ElectronSmearing (in case of problematic SCF convergence) disabled



 =================
 P R E C I S I O N  ***  (General: NumInt, NeglectFunctionTails, ...)  ***
 =================
  

 NumInt:           Target precision:                 4.0000000000
 -------           Initial precision:                4.0000000000
                   Min. precision (optimization):    4.0000000000

 Neglect Functions:          Basis functions:        0.1000000000E-05
 ------------------          Fit functions:          0.1000000000E-05



 ===========================
 L I N E A R   S C A L I N G
 ===========================
  

 Cut-off radii density fit:                        0.1000000000E-07
 Overlap cut-off criterion AO matrix elements:     0.1000000000E-05
 Cut-offs for Coulomb potential and fitted density:0.1000000000E-07
 Cut-off criterion for Coulomb multipole terms:    0.1000000000E-07
 Progressive Convergence parameter:                 0.000000000    
1
 ***************************************************************************************************



                                            ***************************
                                            *  C O M P U T A T I O N  *
                                            ***************************
  



 ==============================
 Double group spinor symmetries  ***  (Spin-Orbit)  ***
 ==============================
  

 The double group Lowdins are spinors adapted to the irreducible representations
 of the double group. These double group Lowdins are linear combinations of
 products of the single group Lowdins and the spinfunctions. The single group
 Lowdins are  orthonormalized symmetrized fragment orbitals (SFOs).
 The complex coefficients that are used in the linear combinations are also
 known as Clebsch-Gordan coefficients.
 The spin functions (alpha,beta) span irrep e1/2


          A * e 1/2 :      A1/2

  A1/2:1 = A.alpha
  A1/2:1 = A.beta

 The table summarizes which one-electron orbital irreps (single group) couple
 with spin to which spinor irreps (double group).
 The Clebsch-Gordan series for each direct product: orbital irrep times e1/2.
                  A
            -------
  A1/2           X


 dimension (equal to the max. nr. of electrons per spinor) of the double group irreps
 ------------------------------------------------------------------------------------
  A1/2           1

 Number of elements of the density matrix on this node (used, total):     48156    853471



 ===========================================
 Numerical Integration : Fuzzy Cells (Becke)
 ===========================================
  
 Becke grid quality: NORMAL         
  
 Lebedev angular grid order:             min:  11 max:  31
 Nr. of radial points:                   min:  46 max: 144

 Total nr. of points:     337986
 Nr. of blocks:             2641
 Block length:               128
 Nr. of dummy points:         62


 Test of Precision of the Numerical Integration Grid
 ===================================================

 Integral of the Total Core Density:                   0.00000000000000



 ========================
 Density Fitting (zlmFit)
 ========================
  
 ZlmFit Fit Quality: NORMAL         
  
 Max L-expansion:                        min:   6 max:   8
 Nr. of radial interpolation points:     min:  39 max: 132



 ======================
 RI Hartree-Fock Scheme
 ======================
  
 Fit Set Quality     : NORMAL
 Threshold Quality   : NORMAL
 Integration Quality : NORMAL
 Fit Generation Method : AUTO
 Response Quality    : DEFAULT
 Is Range Separated  :  F
 
 RIHartreeFock Dependency: number of modified vectors:          19



 =====
 S C F  ***  ScaSCF  ***
 =====
  
 Initial density matrix is calculated as sum of fragments

 CYCLE    1
 SCF Error: norm([F,P])=    251.460483216401, max([F,P])=     42.458804519037
 orbitals (Q,E):
 ---------------
 A1/2 :362...381     ( 1.00    -0.3450)  ( 1.00    -0.3443)  ( 1.00    -0.3441)  ( 1.00    -0.3106)
                     ( 1.00    -0.3103)  ( 1.00    -0.3084)  ( 1.00    -0.3077)  ( 1.00    -0.3057)
                     ( 1.00    -0.3032)  ( 1.00    -0.2602)  ( 0.00    -0.2584)  ( 0.00    -0.2580)
                     ( 0.00    -0.2573)  ( 0.00    -0.2557)  ( 0.00    -0.2556)  ( 0.00    -0.2223)
                     ( 0.00    -0.2216)  ( 0.00    -0.2200)  ( 0.00    -0.2194)  ( 0.00    -0.2187)

 CYCLE    2
   MIX coefficients:  0.8000  0.2000
 SCF Error: norm([F,P])=      2.486936315755, max([F,P])=      0.152422662963
 orbitals (Q,E):
 ---------------
 A1/2 :362...381     ( 1.00    -0.2882)  ( 1.00    -0.2876)  ( 1.00    -0.2867)  ( 1.00    -0.2848)
                     ( 1.00    -0.2839)  ( 1.00    -0.2831)  ( 1.00    -0.2805)  ( 1.00    -0.2799)
                     ( 1.00    -0.2796)  ( 1.00    -0.2752)  ( 0.00    -0.2702)  ( 0.00    -0.2684)
                     ( 0.00    -0.2636)  ( 0.00    -0.2514)  ( 0.00    -0.2488)  ( 0.00    -0.2428)
                     ( 0.00    -0.2278)  ( 0.00    -0.2271)  ( 0.00    -0.2235)  ( 0.00    -0.2223)

 CYCLE    3
  SDIIS (wt  0.000):  0.8389  0.1611
 A-DIIS (wt  1.000):  0.8430  0.1570
  DIIS coefficients:  0.8430  0.1570
 SCF Error: norm([F,P])=      6.293720963935, max([F,P])=      1.030444177548
 orbitals (Q,E):
 ---------------
 A1/2 :362...381     ( 1.00    -0.1153)  ( 1.00    -0.1137)  ( 1.00    -0.1042)  ( 1.00    -0.1033)
                     ( 1.00    -0.0959)  ( 1.00    -0.0947)  ( 1.00    -0.0924)  ( 1.00    -0.0896)
                     ( 1.00    -0.0835)  ( 1.00    -0.0815)  ( 0.00    -0.0767)  ( 0.00    -0.0733)
                     ( 0.00    -0.0714)  ( 0.00    -0.0640)  ( 0.00    -0.0628)  ( 0.00    -0.0571)
                     ( 0.00    -0.0367)  ( 0.00     0.0160)  ( 0.00     0.0194)  ( 0.00     0.0202)

 CYCLE    4
  SDIIS (wt  0.000):  0.7970  0.1500  0.0530
 A-DIIS (wt  1.000):  0.7978  0.1551  0.0471
  DIIS coefficients:  0.7978  0.1551  0.0471
 SCF Error: norm([F,P])=     17.868739702955, max([F,P])=      2.361626264257
 orbitals (Q,E):
 ---------------
 A1/2 :362...381     ( 1.00    -0.0511)  ( 1.00    -0.0469)  ( 1.00    -0.0367)  ( 1.00     0.0281)
                     ( 1.00     0.0300)  ( 1.00     0.0315)  ( 1.00     0.0322)  ( 1.00     0.0335)
                     ( 1.00     0.0356)  ( 1.00     0.0366)  ( 0.00     0.0384)  ( 0.00     0.0564)
                     ( 0.00     0.0579)  ( 0.00     0.0597)  ( 0.00     0.0601)  ( 0.00     0.0620)
                     ( 0.00     0.0659)  ( 0.00     0.0672)  ( 0.00     0.0737)  ( 0.00     0.0843)

 CYCLE    5
  SDIIS (wt  0.000):  0.5429  0.1098  0.0256  0.3217
 A-DIIS (wt  1.000):  0.6252  0.1303  0.0248  0.2197
  DIIS coefficients:  0.6252  0.1303  0.0248  0.2197
 SCF Error: norm([F,P])=      3.750413995808, max([F,P])=      0.332814387021
 orbitals (Q,E):
 ---------------
 A1/2 :362...381     ( 1.00    -0.1682)  ( 1.00    -0.1676)  ( 1.00    -0.1585)  ( 1.00    -0.1565)
                     ( 1.00    -0.1540)  ( 1.00    -0.1531)  ( 1.00    -0.1519)  ( 1.00    -0.1511)
                     ( 1.00    -0.1487)  ( 1.00    -0.1466)  ( 0.00    -0.1461)  ( 0.00    -0.1451)
                     ( 0.00    -0.1422)  ( 0.00    -0.1412)  ( 0.00    -0.1395)  ( 0.00    -0.1327)
                     ( 0.00    -0.1311)  ( 0.00    -0.1303)  ( 0.00    -0.1292)  ( 0.00    -0.1255)

 CYCLE    6
  SDIIS (wt  0.000):  0.5195  0.1059  0.0023  0.3117  0.0606
 A-DIIS (wt  1.000):  0.5677  0.1233  0.0000  0.2227  0.0862
  DIIS coefficients:  0.5677  0.1233  0.0000  0.2227  0.0862
 SCF Error: norm([F,P])=      8.897663855563, max([F,P])=      1.031459839682
 orbitals (Q,E):
 ---------------
 A1/2 :362...381     ( 1.00    -0.1632)  ( 1.00    -0.1629)  ( 1.00    -0.1601)  ( 1.00    -0.1600)
                     ( 1.00    -0.1529)  ( 1.00    -0.1461)  ( 1.00    -0.1431)  ( 1.00    -0.1400)
                     ( 1.00    -0.1323)  ( 1.00    -0.0233)  ( 0.00    -0.0225)  ( 0.00    -0.0209)
                     ( 0.00    -0.0201)  ( 0.00    -0.0176)  ( 0.00    -0.0168)  ( 0.00    -0.0099)
                     ( 0.00     0.0211)  ( 0.00     0.0220)  ( 0.00     0.0231)  ( 0.00     0.0241)

 CYCLE    7
  SDIIS (wt  0.472):  0.2839  0.0201  0.0066  0.0566  0.0288  0.6039
 A-DIIS (wt  0.528):  0.0604  0.0000  0.0000  0.0000  0.0074  0.9322
  DIIS coefficients:  0.1659  0.0095  0.0031  0.0267  0.0175  0.7772
 SCF Error: norm([F,P])=      0.989437884712, max([F,P])=      0.053259907359
 orbitals (Q,E):
 ---------------
 A1/2 :362...381     ( 1.00    -0.1803)  ( 1.00    -0.1791)  ( 1.00    -0.1755)  ( 1.00    -0.1749)
                     ( 1.00    -0.1731)  ( 1.00    -0.1555)  ( 1.00    -0.1550)  ( 1.00    -0.1538)
                     ( 1.00    -0.1525)  ( 1.00    -0.1096)  ( 0.00    -0.1094)  ( 0.00    -0.1087)
                     ( 0.00    -0.1083)  ( 0.00    -0.1008)  ( 0.00    -0.0971)  ( 0.00    -0.0924)
                     ( 0.00    -0.0918)  ( 0.00    -0.0792)  ( 0.00    -0.0781)  ( 0.00    -0.0709)

 CYCLE    8
  SDIIS (wt  0.000):  0.2209  0.0161  0.0004  0.0223  0.0004  0.6446  0.0952
 A-DIIS (wt  1.000):  0.0159  0.0000  0.0000  0.0000  0.0000  0.8692  0.1149
  DIIS coefficients:  0.0159  0.0000  0.0000  0.0000  0.0000  0.8692  0.1149
 SCF Error: norm([F,P])=      4.453295869278, max([F,P])=      1.031314079131
 orbitals (Q,E):
 ---------------
 A1/2 :362...381     ( 1.00    -0.1995)  ( 1.00    -0.1977)  ( 1.00    -0.1965)  ( 1.00    -0.1951)
                     ( 1.00    -0.1943)  ( 1.00    -0.1930)  ( 1.00    -0.1915)  ( 1.00    -0.1909)
                     ( 1.00    -0.1894)  ( 1.00    -0.0529)  ( 0.00     0.0158)  ( 0.00     0.0159)
                     ( 0.00     0.0211)  ( 0.00     0.0338)  ( 0.00     0.0340)  ( 0.00     0.0427)
                     ( 0.00     0.0432)  ( 0.00     0.0436)  ( 0.00     0.0450)  ( 0.00     0.0485)

 CYCLE    9
  SDIIS (wt  0.412): -0.0208 -0.0081  0.0013  0.0057  0.0097  0.4936  0.0448  0.4738
 A-DIIS (wt  0.588):  0.0000  0.0000  0.0000  0.0000  0.0000  0.5302  0.0525  0.4173
  DIIS coefficients: -0.0086 -0.0033  0.0005  0.0023  0.0040  0.5151  0.0493  0.4406
 SCF Error: norm([F,P])=      1.055997392905, max([F,P])=      0.059205500619
 orbitals (Q,E):
 ---------------
 A1/2 :362...381     ( 1.00    -0.1919)  ( 1.00    -0.1896)  ( 1.00    -0.1887)  ( 1.00    -0.1852)
                     ( 1.00    -0.1836)  ( 1.00    -0.1822)  ( 1.00    -0.1810)  ( 1.00    -0.1774)
                     ( 1.00    -0.1759)  ( 1.00    -0.0818)  ( 0.00    -0.0686)  ( 0.00    -0.0572)
                     ( 0.00    -0.0564)  ( 0.00    -0.0562)  ( 0.00    -0.0494)  ( 0.00    -0.0484)
                     ( 0.00    -0.0465)  ( 0.00    -0.0463)  ( 0.00    -0.0429)  ( 0.00    -0.0427)

 CYCLE   10
  SDIIS (wt  0.413):  0.0117 -0.0040  0.0009  0.0016  0.0008  0.2385 -0.0126  0.2136  0.5496
 A-DIIS (wt  0.587):  0.0000  0.0000  0.0000  0.0000  0.0000  0.0111  0.0000  0.0000  0.9889
  DIIS coefficients:  0.0049 -0.0017  0.0004  0.0007  0.0003  0.1050 -0.0052  0.0882  0.8075
 SCF Error: norm([F,P])=      0.370114871733, max([F,P])=      0.059110927501
 orbitals (Q,E):
 ---------------
 A1/2 :362...381     ( 1.00    -0.1851)  ( 1.00    -0.1842)  ( 1.00    -0.1834)  ( 1.00    -0.1820)
                     ( 1.00    -0.1813)  ( 1.00    -0.1808)  ( 1.00    -0.1805)  ( 1.00    -0.1763)
                     ( 1.00    -0.1757)  ( 1.00    -0.1238)  ( 0.00     0.0304)  ( 0.00     0.0305)
                     ( 0.00     0.0421)  ( 0.00     0.0423)  ( 0.00     0.0581)  ( 0.00     0.0606)
                     ( 0.00     0.0628)  ( 0.00     0.0631)  ( 0.00     0.0643)  ( 0.00     0.0656)

 CYCLE   11
  SDIIS (wt  0.000): -0.0100 -0.0026  0.0007  0.0022 -0.0009  0.0473 -0.0137  0.0806  0.6277  0.2688
 A-DIIS (wt  1.000):  0.0000  0.0000  0.0000  0.0000  0.0000  0.0000 -0.0000  0.0000  0.6603  0.3397
  DIIS coefficients:  0.0000  0.0000  0.0000  0.0000  0.0000  0.0000 -0.0000  0.0000  0.6603  0.3397
 SCF Error: norm([F,P])=      0.574674363100, max([F,P])=      0.073692531288
 orbitals (Q,E):
 ---------------
 A1/2 :362...381     ( 1.00    -0.1863)  ( 1.00    -0.1831)  ( 1.00    -0.1826)  ( 1.00    -0.1824)
                     ( 1.00    -0.1822)  ( 1.00    -0.1820)  ( 1.00    -0.1816)  ( 1.00    -0.1764)
                     ( 1.00    -0.1761)  ( 1.00    -0.1116)  ( 0.00     0.0191)  ( 0.00     0.0193)
                     ( 0.00     0.0206)  ( 0.00     0.0206)  ( 0.00     0.0218)  ( 0.00     0.0221)
                     ( 0.00     0.0293)  ( 0.00     0.0294)  ( 0.00     0.0310)  ( 0.00     0.0312)

 CYCLE   12
  SDIIS (wt  0.821): -0.0002  0.0006 -0.0009 -0.0000 -0.0274 -0.0069 -0.0195  0.4038  0.1260  0.5245
 A-DIIS (wt  0.179):  0.0000  0.0000  0.0000  0.0000  0.0000  0.0000  0.0000  0.2106  0.0000  0.7894
  DIIS coefficients: -0.0001  0.0005 -0.0007 -0.0000 -0.0225 -0.0057 -0.0160  0.3692  0.1035  0.5719
 SCF Error: norm([F,P])=      0.150483611059, max([F,P])=      0.018707078064
 orbitals (Q,E):
 ---------------
 A1/2 :362...381     ( 1.00    -0.1891)  ( 1.00    -0.1854)  ( 1.00    -0.1853)  ( 1.00    -0.1827)
                     ( 1.00    -0.1823)  ( 1.00    -0.1814)  ( 1.00    -0.1811)  ( 1.00    -0.1759)
                     ( 1.00    -0.1757)  ( 1.00    -0.1093)  ( 0.00    -0.0143)  ( 0.00    -0.0130)
                     ( 0.00    -0.0129)  ( 0.00    -0.0128)  ( 0.00    -0.0087)  ( 0.00    -0.0086)
                     ( 0.00    -0.0040)  ( 0.00    -0.0040)  ( 0.00    -0.0019)  ( 0.00    -0.0016)

 CYCLE   13
  SDIIS (wt  0.973):  0.0003 -0.0012 -0.0002 -0.0128 -0.0039 -0.0112  0.1851  0.0318  0.3696  0.4426
 A-DIIS (wt  0.027):  0.0000  0.0000  0.0000  0.0000  0.0000  0.0000  0.0000  0.0000  0.0204  0.9796
  DIIS coefficients:  0.0003 -0.0012 -0.0002 -0.0125 -0.0038 -0.0109  0.1800  0.0310  0.3600  0.4573
 SCF Error: norm([F,P])=      0.040653285961, max([F,P])=      0.003711892600
 orbitals (Q,E):
 ---------------
 A1/2 :362...381     ( 1.00    -0.1892)  ( 1.00    -0.1854)  ( 1.00    -0.1853)  ( 1.00    -0.1831)
                     ( 1.00    -0.1828)  ( 1.00    -0.1818)  ( 1.00    -0.1817)  ( 1.00    -0.1763)
                     ( 1.00    -0.1763)  ( 1.00    -0.1088)  ( 0.00    -0.0088)  ( 0.00    -0.0080)
                     ( 0.00    -0.0075)  ( 0.00    -0.0075)  ( 0.00    -0.0037)  ( 0.00    -0.0036)
                     ( 0.00     0.0013)  ( 0.00     0.0014)  ( 0.00     0.0034)  ( 0.00     0.0035)

 CYCLE   14
  SDIIS (wt  0.988): -0.0001 -0.0000  0.0161  0.0002  0.0135  0.0019 -0.0186  0.0261  0.2753  0.6856
 A-DIIS (wt  0.012):  0.0000  0.0000  0.0000  0.0000  0.0000  0.0000  0.0000  0.0000  0.0000  1.0000
  DIIS coefficients: -0.0001 -0.0000  0.0159  0.0002  0.0134  0.0019 -0.0183  0.0258  0.2720  0.6893
 SCF Error: norm([F,P])=      0.016209809394, max([F,P])=      0.002172493295
 orbitals (Q,E):
 ---------------
 A1/2 :362...381     ( 1.00    -0.1894)  ( 1.00    -0.1856)  ( 1.00    -0.1855)  ( 1.00    -0.1831)
                     ( 1.00    -0.1829)  ( 1.00    -0.1818)  ( 1.00    -0.1817)  ( 1.00    -0.1763)
                     ( 1.00    -0.1763)  ( 1.00    -0.1108)  ( 0.00    -0.0096)  ( 0.00    -0.0095)
                     ( 0.00    -0.0083)  ( 0.00    -0.0083)  ( 0.00    -0.0045)  ( 0.00    -0.0044)
                     ( 0.00     0.0005)  ( 0.00     0.0005)  ( 0.00     0.0027)  ( 0.00     0.0028)

 CYCLE   15
  SDIIS (wt  0.990):  0.0000  0.0167  0.0011  0.0135 -0.0489 -0.0203 -0.0785  0.0617  0.4576  0.5971
 A-DIIS (wt  0.010):  0.0000  0.0000  0.0000  0.0000  0.0000  0.0000  0.0000  0.0000  0.0000  1.0000
  DIIS coefficients:  0.0000  0.0165  0.0011  0.0133 -0.0484 -0.0201 -0.0777  0.0610  0.4530  0.6013
 SCF Error: norm([F,P])=      0.010843740423, max([F,P])=      0.002012527074
 orbitals (Q,E):
 ---------------
 A1/2 :362...381     ( 1.00    -0.1892)  ( 1.00    -0.1853)  ( 1.00    -0.1853)  ( 1.00    -0.1831)
                     ( 1.00    -0.1830)  ( 1.00    -0.1819)  ( 1.00    -0.1818)  ( 1.00    -0.1764)
                     ( 1.00    -0.1764)  ( 1.00    -0.1107)  ( 0.00    -0.0094)  ( 0.00    -0.0092)
                     ( 0.00    -0.0081)  ( 0.00    -0.0081)  ( 0.00    -0.0042)  ( 0.00    -0.0042)
                     ( 0.00     0.0008)  ( 0.00     0.0008)  ( 0.00     0.0030)  ( 0.00     0.0031)

 CYCLE   16
  SDIIS (wt  0.991):  0.0141  0.0012  0.0111 -0.0529 -0.0150 -0.1099 -0.0778  0.0655  0.0558  1.1078
 A-DIIS (wt  0.009):  0.0000  0.0000  0.0000  0.0000  0.0000  0.0000  0.0000  0.0000  0.0000  1.0000
  DIIS coefficients:  0.0140  0.0012  0.0110 -0.0524 -0.0149 -0.1089 -0.0772  0.0650  0.0553  1.1069
 SCF Error: norm([F,P])=      0.008487715858, max([F,P])=      0.001841796935
 orbitals (Q,E):
 ---------------
 A1/2 :362...381     ( 1.00    -0.1892)  ( 1.00    -0.1853)  ( 1.00    -0.1853)  ( 1.00    -0.1830)
                     ( 1.00    -0.1829)  ( 1.00    -0.1819)  ( 1.00    -0.1818)  ( 1.00    -0.1764)
                     ( 1.00    -0.1763)  ( 1.00    -0.1118)  ( 0.00    -0.0094)  ( 0.00    -0.0091)
                     ( 0.00    -0.0080)  ( 0.00    -0.0080)  ( 0.00    -0.0041)  ( 0.00    -0.0041)
                     ( 0.00     0.0008)  ( 0.00     0.0008)  ( 0.00     0.0031)  ( 0.00     0.0031)

 CYCLE   17
  SDIIS (wt  0.995):  0.0004 -0.0004 -0.0183  0.0011 -0.0629 -0.2006 -0.5415 -1.0365  1.5542  1.3044
 A-DIIS (wt  0.005):  0.0000  0.0000  0.0000  0.0000  0.0000  0.0000  0.0000  0.0000  0.0000  1.0000
  DIIS coefficients:  0.0004 -0.0004 -0.0182  0.0011 -0.0625 -0.1995 -0.5385 -1.0308  1.5456  1.3027
 SCF Error: norm([F,P])=      0.008148122028, max([F,P])=      0.001542647440
 orbitals (Q,E):
 ---------------
 A1/2 :362...381     ( 1.00    -0.1892)  ( 1.00    -0.1854)  ( 1.00    -0.1854)  ( 1.00    -0.1829)
                     ( 1.00    -0.1829)  ( 1.00    -0.1820)  ( 1.00    -0.1819)  ( 1.00    -0.1765)
                     ( 1.00    -0.1763)  ( 1.00    -0.1169)  ( 0.00    -0.0090)  ( 0.00    -0.0090)
                     ( 0.00    -0.0078)  ( 0.00    -0.0078)  ( 0.00    -0.0040)  ( 0.00    -0.0039)
                     ( 0.00     0.0010)  ( 0.00     0.0010)  ( 0.00     0.0033)  ( 0.00     0.0033)

 CYCLE   18
  SDIIS (wt  1.000):  0.0004  0.0090  0.0022 -0.0058 -0.0762 -0.3387 -0.8148  0.1326  1.1622  0.9293
  DIIS coefficients:  0.0004  0.0090  0.0022 -0.0058 -0.0762 -0.3387 -0.8148  0.1326  1.1622  0.9293
 SCF Error: norm([F,P])=      0.006108430746, max([F,P])=      0.000800718130
 orbitals (Q,E):
 ---------------
 A1/2 :362...381     ( 1.00    -0.1892)  ( 1.00    -0.1853)  ( 1.00    -0.1853)  ( 1.00    -0.1830)
                     ( 1.00    -0.1830)  ( 1.00    -0.1821)  ( 1.00    -0.1820)  ( 1.00    -0.1766)
                     ( 1.00    -0.1764)  ( 1.00    -0.1198)  ( 0.00    -0.0095)  ( 0.00    -0.0095)
                     ( 0.00    -0.0083)  ( 0.00    -0.0083)  ( 0.00    -0.0045)  ( 0.00    -0.0044)
                     ( 0.00     0.0005)  ( 0.00     0.0005)  ( 0.00     0.0027)  ( 0.00     0.0028)

 CYCLE   19
  SDIIS (wt  1.000):  0.0048  0.0016  0.0104 -0.0081 -0.0703 -0.2366 -0.0385  0.3609  0.3155  0.6603
  DIIS coefficients:  0.0048  0.0016  0.0104 -0.0081 -0.0703 -0.2366 -0.0385  0.3609  0.3155  0.6603
 SCF Error: norm([F,P])=      0.004222048183, max([F,P])=      0.000791680346
 orbitals (Q,E):
 ---------------
 A1/2 :362...381     ( 1.00    -0.1892)  ( 1.00    -0.1853)  ( 1.00    -0.1853)  ( 1.00    -0.1830)
                     ( 1.00    -0.1830)  ( 1.00    -0.1821)  ( 1.00    -0.1820)  ( 1.00    -0.1765)
                     ( 1.00    -0.1764)  ( 1.00    -0.1159)  ( 0.00    -0.0091)  ( 0.00    -0.0091)
                     ( 0.00    -0.0079)  ( 0.00    -0.0079)  ( 0.00    -0.0041)  ( 0.00    -0.0041)
                     ( 0.00     0.0009)  ( 0.00     0.0009)  ( 0.00     0.0031)  ( 0.00     0.0032)

 CYCLE   20
  SDIIS (wt  1.000):  0.0008  0.0030 -0.0004  0.0129  0.0267 -0.0306 -0.0410 -0.1146  0.2758  0.8674
  DIIS coefficients:  0.0008  0.0030 -0.0004  0.0129  0.0267 -0.0306 -0.0410 -0.1146  0.2758  0.8674
 SCF Error: norm([F,P])=      0.002979868152, max([F,P])=      0.000742003753
 orbitals (Q,E):
 ---------------
 A1/2 :362...381     ( 1.00    -0.1892)  ( 1.00    -0.1853)  ( 1.00    -0.1853)  ( 1.00    -0.1830)
                     ( 1.00    -0.1830)  ( 1.00    -0.1821)  ( 1.00    -0.1820)  ( 1.00    -0.1765)
                     ( 1.00    -0.1764)  ( 1.00    -0.1151)  ( 0.00    -0.0091)  ( 0.00    -0.0090)
                     ( 0.00    -0.0079)  ( 0.00    -0.0079)  ( 0.00    -0.0041)  ( 0.00    -0.0040)
                     ( 0.00     0.0010)  ( 0.00     0.0010)  ( 0.00     0.0032)  ( 0.00     0.0032)

 CYCLE   21
  SDIIS (wt  1.000):  0.0009 -0.0004 -0.0011  0.0260 -0.0410 -0.0445 -0.0711  0.0289  0.4966  0.6057
  DIIS coefficients:  0.0009 -0.0004 -0.0011  0.0260 -0.0410 -0.0445 -0.0711  0.0289  0.4966  0.6057
 SCF Error: norm([F,P])=      0.002724412953, max([F,P])=      0.000750526684
 orbitals (Q,E):
 ---------------
 A1/2 :362...381     ( 1.00    -0.1891)  ( 1.00    -0.1853)  ( 1.00    -0.1853)  ( 1.00    -0.1830)
                     ( 1.00    -0.1830)  ( 1.00    -0.1821)  ( 1.00    -0.1820)  ( 1.00    -0.1766)
                     ( 1.00    -0.1764)  ( 1.00    -0.1155)  ( 0.00    -0.0091)  ( 0.00    -0.0091)
                     ( 0.00    -0.0079)  ( 0.00    -0.0079)  ( 0.00    -0.0041)  ( 0.00    -0.0040)
                     ( 0.00     0.0009)  ( 0.00     0.0009)  ( 0.00     0.0032)  ( 0.00     0.0032)

 CYCLE   22
  SDIIS (wt  1.000):  0.0027  0.0022  0.0147 -0.0257 -0.0175  0.0411  0.0391 -0.2059  0.1822  0.9671
  DIIS coefficients:  0.0027  0.0022  0.0147 -0.0257 -0.0175  0.0411  0.0391 -0.2059  0.1822  0.9671
 SCF Error: norm([F,P])=      0.002374126533, max([F,P])=      0.000758240617
 orbitals (Q,E):
 ---------------
 A1/2 :362...381     ( 1.00    -0.1891)  ( 1.00    -0.1853)  ( 1.00    -0.1853)  ( 1.00    -0.1830)
                     ( 1.00    -0.1830)  ( 1.00    -0.1821)  ( 1.00    -0.1820)  ( 1.00    -0.1765)
                     ( 1.00    -0.1764)  ( 1.00    -0.1151)  ( 0.00    -0.0091)  ( 0.00    -0.0090)
                     ( 0.00    -0.0079)  ( 0.00    -0.0079)  ( 0.00    -0.0040)  ( 0.00    -0.0040)
                     ( 0.00     0.0010)  ( 0.00     0.0010)  ( 0.00     0.0032)  ( 0.00     0.0032)

 CYCLE   23
  SDIIS (wt  1.000): -0.0070 -0.1228  0.0021  0.1893  0.3085  0.1793 -1.4119 -1.0870  1.4019  1.5476
  DIIS coefficients: -0.0070 -0.1228  0.0021  0.1893  0.3085  0.1793 -1.4119 -1.0870  1.4019  1.5476
 SCF Error: norm([F,P])=      0.002413224910, max([F,P])=      0.000726670211
 orbitals (Q,E):
 ---------------
 A1/2 :362...381     ( 1.00    -0.1892)  ( 1.00    -0.1853)  ( 1.00    -0.1853)  ( 1.00    -0.1830)
                     ( 1.00    -0.1829)  ( 1.00    -0.1821)  ( 1.00    -0.1820)  ( 1.00    -0.1765)
                     ( 1.00    -0.1764)  ( 1.00    -0.1155)  ( 0.00    -0.0091)  ( 0.00    -0.0091)
                     ( 0.00    -0.0079)  ( 0.00    -0.0079)  ( 0.00    -0.0040)  ( 0.00    -0.0040)
                     ( 0.00     0.0010)  ( 0.00     0.0010)  ( 0.00     0.0032)  ( 0.00     0.0032)

 CYCLE   24
  SDIIS (wt  1.000): -0.1404  0.0454  0.2095  0.3004  0.2652 -1.5746 -1.5236  0.8516  1.6040  0.9624
  DIIS coefficients: -0.1404  0.0454  0.2095  0.3004  0.2652 -1.5746 -1.5236  0.8516  1.6040  0.9624
 SCF Error: norm([F,P])=      0.002179695516, max([F,P])=      0.000635259783
 orbitals (Q,E):
 ---------------
 A1/2 :362...381     ( 1.00    -0.1891)  ( 1.00    -0.1853)  ( 1.00    -0.1852)  ( 1.00    -0.1830)
                     ( 1.00    -0.1830)  ( 1.00    -0.1822)  ( 1.00    -0.1821)  ( 1.00    -0.1766)
                     ( 1.00    -0.1764)  ( 1.00    -0.1158)  ( 0.00    -0.0090)  ( 0.00    -0.0090)
                     ( 0.00    -0.0078)  ( 0.00    -0.0078)  ( 0.00    -0.0040)  ( 0.00    -0.0040)
                     ( 0.00     0.0010)  ( 0.00     0.0010)  ( 0.00     0.0032)  ( 0.00     0.0032)

 CYCLE   25
  SDIIS (wt  1.000):  0.0117  0.0492  0.1129  0.1563 -0.8346 -0.8160  0.3768  0.6434  0.6219  0.6783
  DIIS coefficients:  0.0117  0.0492  0.1129  0.1563 -0.8346 -0.8160  0.3768  0.6434  0.6219  0.6783
 SCF Error: norm([F,P])=      0.001894568074, max([F,P])=      0.000492598695
 orbitals (Q,E):
 ---------------
 A1/2 :362...381     ( 1.00    -0.1891)  ( 1.00    -0.1852)  ( 1.00    -0.1852)  ( 1.00    -0.1830)
                     ( 1.00    -0.1830)  ( 1.00    -0.1822)  ( 1.00    -0.1821)  ( 1.00    -0.1766)
                     ( 1.00    -0.1765)  ( 1.00    -0.1160)  ( 0.00    -0.0090)  ( 0.00    -0.0089)
                     ( 0.00    -0.0078)  ( 0.00    -0.0078)  ( 0.00    -0.0039)  ( 0.00    -0.0039)
                     ( 0.00     0.0011)  ( 0.00     0.0011)  ( 0.00     0.0033)  ( 0.00     0.0033)

 CYCLE   26
  SDIIS (wt  1.000):  0.0529  0.1002  0.2057 -0.6901 -0.7250  0.4350  0.5248  0.0265  0.1256  0.9444
  DIIS coefficients:  0.0529  0.1002  0.2057 -0.6901 -0.7250  0.4350  0.5248  0.0265  0.1256  0.9444
 SCF Error: norm([F,P])=      0.001694731205, max([F,P])=      0.000411356314
 orbitals (Q,E):
 ---------------
 A1/2 :362...381     ( 1.00    -0.1891)  ( 1.00    -0.1853)  ( 1.00    -0.1852)  ( 1.00    -0.1830)
                     ( 1.00    -0.1829)  ( 1.00    -0.1822)  ( 1.00    -0.1821)  ( 1.00    -0.1765)
                     ( 1.00    -0.1764)  ( 1.00    -0.1162)  ( 0.00    -0.0090)  ( 0.00    -0.0090)
                     ( 0.00    -0.0079)  ( 0.00    -0.0078)  ( 0.00    -0.0040)  ( 0.00    -0.0040)
                     ( 0.00     0.0010)  ( 0.00     0.0010)  ( 0.00     0.0032)  ( 0.00     0.0032)

 CYCLE   27
  SDIIS (wt  1.000):  0.0067  0.0485 -0.0822  0.0071  0.2675 -0.0156 -0.5691 -0.7422  0.9844  1.0950
  DIIS coefficients:  0.0067  0.0485 -0.0822  0.0071  0.2675 -0.0156 -0.5691 -0.7422  0.9844  1.0950
 SCF Error: norm([F,P])=      0.001471757204, max([F,P])=      0.000321112903
 orbitals (Q,E):
 ---------------
 A1/2 :362...381     ( 1.00    -0.1891)  ( 1.00    -0.1852)  ( 1.00    -0.1852)  ( 1.00    -0.1830)
                     ( 1.00    -0.1830)  ( 1.00    -0.1822)  ( 1.00    -0.1821)  ( 1.00    -0.1766)
                     ( 1.00    -0.1765)  ( 1.00    -0.1165)  ( 0.00    -0.0090)  ( 0.00    -0.0090)
                     ( 0.00    -0.0078)  ( 0.00    -0.0078)  ( 0.00    -0.0040)  ( 0.00    -0.0039)
                     ( 0.00     0.0010)  ( 0.00     0.0010)  ( 0.00     0.0033)  ( 0.00     0.0033)

 CYCLE   28
  SDIIS (wt  1.000):  0.0112  0.0881  0.0478 -0.0634 -0.0081 -0.1626 -0.5469  0.2165  0.6952  0.7223
  DIIS coefficients:  0.0112  0.0881  0.0478 -0.0634 -0.0081 -0.1626 -0.5469  0.2165  0.6952  0.7223
 SCF Error: norm([F,P])=      0.001158162886, max([F,P])=      0.000298378857
 orbitals (Q,E):
 ---------------
 A1/2 :362...381     ( 1.00    -0.1891)  ( 1.00    -0.1852)  ( 1.00    -0.1852)  ( 1.00    -0.1830)
                     ( 1.00    -0.1830)  ( 1.00    -0.1822)  ( 1.00    -0.1821)  ( 1.00    -0.1766)
                     ( 1.00    -0.1765)  ( 1.00    -0.1163)  ( 0.00    -0.0090)  ( 0.00    -0.0090)
                     ( 0.00    -0.0078)  ( 0.00    -0.0078)  ( 0.00    -0.0040)  ( 0.00    -0.0039)
                     ( 0.00     0.0010)  ( 0.00     0.0010)  ( 0.00     0.0033)  ( 0.00     0.0033)

 CYCLE   29
  SDIIS (wt  1.000):  0.0463 -0.0032 -0.1458  0.0198  0.1552 -0.1481 -0.1655  0.1052  0.5124  0.6238
  DIIS coefficients:  0.0463 -0.0032 -0.1458  0.0198  0.1552 -0.1481 -0.1655  0.1052  0.5124  0.6238
 SCF Error: norm([F,P])=      0.000974457539, max([F,P])=      0.000309742747
 orbitals (Q,E):
 ---------------
 A1/2 :362...381     ( 1.00    -0.1891)  ( 1.00    -0.1852)  ( 1.00    -0.1852)  ( 1.00    -0.1830)
                     ( 1.00    -0.1830)  ( 1.00    -0.1822)  ( 1.00    -0.1821)  ( 1.00    -0.1766)
                     ( 1.00    -0.1765)  ( 1.00    -0.1164)  ( 0.00    -0.0090)  ( 0.00    -0.0089)
                     ( 0.00    -0.0078)  ( 0.00    -0.0078)  ( 0.00    -0.0039)  ( 0.00    -0.0039)
                     ( 0.00     0.0011)  ( 0.00     0.0011)  ( 0.00     0.0033)  ( 0.00     0.0033)

 CYCLE   30
  SDIIS (wt  1.000):  0.0097 -0.1161  0.0196  0.1862  0.2161 -0.2414 -0.3403 -0.1567  0.3880  1.0350
  DIIS coefficients:  0.0097 -0.1161  0.0196  0.1862  0.2161 -0.2414 -0.3403 -0.1567  0.3880  1.0350
 SCF Error: norm([F,P])=      0.000835670317, max([F,P])=      0.000318808333
 orbitals (Q,E):
 ---------------
 A1/2 :362...381     ( 1.00    -0.1891)  ( 1.00    -0.1852)  ( 1.00    -0.1852)  ( 1.00    -0.1830)
                     ( 1.00    -0.1830)  ( 1.00    -0.1822)  ( 1.00    -0.1821)  ( 1.00    -0.1766)
                     ( 1.00    -0.1765)  ( 1.00    -0.1161)  ( 0.00    -0.0090)  ( 0.00    -0.0090)
                     ( 0.00    -0.0078)  ( 0.00    -0.0078)  ( 0.00    -0.0040)  ( 0.00    -0.0039)
                     ( 0.00     0.0010)  ( 0.00     0.0010)  ( 0.00     0.0033)  ( 0.00     0.0033)

 CYCLE   31
  SDIIS (wt  1.000): -0.0567  0.0270  0.0755  0.1431 -0.1282 -0.2253 -0.2355  0.0880  0.6919  0.6204
  DIIS coefficients: -0.0567  0.0270  0.0755  0.1431 -0.1282 -0.2253 -0.2355  0.0880  0.6919  0.6204
 SCF Error: norm([F,P])=      0.000784321922, max([F,P])=      0.000329262896
 orbitals (Q,E):
 ---------------
 A1/2 :362...381     ( 1.00    -0.1891)  ( 1.00    -0.1852)  ( 1.00    -0.1852)  ( 1.00    -0.1830)
                     ( 1.00    -0.1830)  ( 1.00    -0.1822)  ( 1.00    -0.1821)  ( 1.00    -0.1766)
                     ( 1.00    -0.1765)  ( 1.00    -0.1161)  ( 0.00    -0.0090)  ( 0.00    -0.0090)
                     ( 0.00    -0.0078)  ( 0.00    -0.0078)  ( 0.00    -0.0040)  ( 0.00    -0.0039)
                     ( 0.00     0.0010)  ( 0.00     0.0011)  ( 0.00     0.0033)  ( 0.00     0.0033)

 CYCLE   32
  SDIIS (wt  1.000):  0.0304  0.0146  0.0187 -0.0666 -0.0731 -0.1125  0.0075  0.2223  0.3806  0.5781
  DIIS coefficients:  0.0304  0.0146  0.0187 -0.0666 -0.0731 -0.1125  0.0075  0.2223  0.3806  0.5781
 SCF Error: norm([F,P])=      0.000749268040, max([F,P])=      0.000337860522
 orbitals (Q,E):
 ---------------
 A1/2 :362...381     ( 1.00    -0.1891)  ( 1.00    -0.1852)  ( 1.00    -0.1852)  ( 1.00    -0.1830)
                     ( 1.00    -0.1830)  ( 1.00    -0.1822)  ( 1.00    -0.1821)  ( 1.00    -0.1766)
                     ( 1.00    -0.1765)  ( 1.00    -0.1160)  ( 0.00    -0.0090)  ( 0.00    -0.0090)
                     ( 0.00    -0.0078)  ( 0.00    -0.0078)  ( 0.00    -0.0039)  ( 0.00    -0.0039)
                     ( 0.00     0.0011)  ( 0.00     0.0011)  ( 0.00     0.0033)  ( 0.00     0.0033)

 CYCLE   33
  SDIIS (wt  1.000):  0.0157 -0.0282 -0.0381  0.0301  0.1082  0.0328 -0.2324 -0.2046  0.2325  1.0838
  DIIS coefficients:  0.0157 -0.0282 -0.0381  0.0301  0.1082  0.0328 -0.2324 -0.2046  0.2325  1.0838
 SCF Error: norm([F,P])=      0.000730584270, max([F,P])=      0.000342209643
 orbitals (Q,E):
 ---------------
 A1/2 :362...381     ( 1.00    -0.1891)  ( 1.00    -0.1852)  ( 1.00    -0.1852)  ( 1.00    -0.1830)
                     ( 1.00    -0.1830)  ( 1.00    -0.1822)  ( 1.00    -0.1821)  ( 1.00    -0.1766)
                     ( 1.00    -0.1765)  ( 1.00    -0.1162)  ( 0.00    -0.0090)  ( 0.00    -0.0090)
                     ( 0.00    -0.0078)  ( 0.00    -0.0078)  ( 0.00    -0.0039)  ( 0.00    -0.0039)
                     ( 0.00     0.0011)  ( 0.00     0.0011)  ( 0.00     0.0033)  ( 0.00     0.0033)

 CYCLE   34
  SDIIS (wt  1.000): -0.0259 -0.0162  0.0451  0.1198  0.0069 -0.2949 -0.2694  0.0706  0.9684  0.3955
  DIIS coefficients: -0.0259 -0.0162  0.0451  0.1198  0.0069 -0.2949 -0.2694  0.0706  0.9684  0.3955
 SCF Error: norm([F,P])=      0.000734801942, max([F,P])=      0.000352072273
 orbitals (Q,E):
 ---------------
 A1/2 :362...381     ( 1.00    -0.1891)  ( 1.00    -0.1852)  ( 1.00    -0.1852)  ( 1.00    -0.1830)
                     ( 1.00    -0.1830)  ( 1.00    -0.1822)  ( 1.00    -0.1821)  ( 1.00    -0.1766)
                     ( 1.00    -0.1765)  ( 1.00    -0.1162)  ( 0.00    -0.0090)  ( 0.00    -0.0090)
                     ( 0.00    -0.0078)  ( 0.00    -0.0078)  ( 0.00    -0.0039)  ( 0.00    -0.0039)
                     ( 0.00     0.0010)  ( 0.00     0.0011)  ( 0.00     0.0033)  ( 0.00     0.0033)

 CYCLE   35
  SDIIS (wt  1.000): -0.0232  0.0172  0.0851  0.0066 -0.2321 -0.2153  0.0610  0.8749  0.2881  0.1378
  DIIS coefficients: -0.0232  0.0172  0.0851  0.0066 -0.2321 -0.2153  0.0610  0.8749  0.2881  0.1378
 SCF Error: norm([F,P])=      0.000733630203, max([F,P])=      0.000358557438
 orbitals (Q,E):
 ---------------
 A1/2 :362...381     ( 1.00    -0.1891)  ( 1.00    -0.1852)  ( 1.00    -0.1852)  ( 1.00    -0.1830)
                     ( 1.00    -0.1830)  ( 1.00    -0.1822)  ( 1.00    -0.1821)  ( 1.00    -0.1766)
                     ( 1.00    -0.1765)  ( 1.00    -0.1162)  ( 0.00    -0.0090)  ( 0.00    -0.0090)
                     ( 0.00    -0.0078)  ( 0.00    -0.0078)  ( 0.00    -0.0039)  ( 0.00    -0.0039)
                     ( 0.00     0.0010)  ( 0.00     0.0011)  ( 0.00     0.0033)  ( 0.00     0.0033)

 CYCLE   36
  SDIIS (wt  1.000):  0.0071  0.0560 -0.0026 -0.2088 -0.1980  0.0508  0.8379  0.2612  0.2823 -0.0860
  DIIS coefficients:  0.0071  0.0560 -0.0026 -0.2088 -0.1980  0.0508  0.8379  0.2612  0.2823 -0.0860
 SCF Error: norm([F,P])=      0.000731948488, max([F,P])=      0.000359004938
 orbitals (Q,E):
 ---------------
 A1/2 :362...381     ( 1.00    -0.1891)  ( 1.00    -0.1852)  ( 1.00    -0.1852)  ( 1.00    -0.1830)
                     ( 1.00    -0.1830)  ( 1.00    -0.1822)  ( 1.00    -0.1821)  ( 1.00    -0.1766)
                     ( 1.00    -0.1765)  ( 1.00    -0.1162)  ( 0.00    -0.0090)  ( 0.00    -0.0090)
                     ( 0.00    -0.0078)  ( 0.00    -0.0078)  ( 0.00    -0.0040)  ( 0.00    -0.0039)
                     ( 0.00     0.0010)  ( 0.00     0.0011)  ( 0.00     0.0033)  ( 0.00     0.0033)

 CYCLE   37
  SDIIS (wt  1.000):  0.0553  0.0038 -0.1849 -0.1771  0.0485  0.7650  0.2311  0.0890 -0.1358  0.3051
  DIIS coefficients:  0.0553  0.0038 -0.1849 -0.1771  0.0485  0.7650  0.2311  0.0890 -0.1358  0.3051
 SCF Error: norm([F,P])=      0.000730516193, max([F,P])=      0.000359216184
 orbitals (Q,E):
 ---------------
 A1/2 :362...381     ( 1.00    -0.1891)  ( 1.00    -0.1852)  ( 1.00    -0.1852)  ( 1.00    -0.1830)
                     ( 1.00    -0.1830)  ( 1.00    -0.1822)  ( 1.00    -0.1821)  ( 1.00    -0.1766)
                     ( 1.00    -0.1765)  ( 1.00    -0.1162)  ( 0.00    -0.0090)  ( 0.00    -0.0090)
                     ( 0.00    -0.0078)  ( 0.00    -0.0078)  ( 0.00    -0.0039)  ( 0.00    -0.0039)
                     ( 0.00     0.0010)  ( 0.00     0.0011)  ( 0.00     0.0033)  ( 0.00     0.0033)

 CYCLE   38
  SDIIS (wt  1.000): -0.0144 -0.1126 -0.0752  0.1176  0.6962  0.1939  0.5566 -0.0188  0.6732 -1.0165
  DIIS coefficients: -0.0144 -0.1126 -0.0752  0.1176  0.6962  0.1939  0.5566 -0.0188  0.6732 -1.0165
 SCF Error: norm([F,P])=      0.000730556909, max([F,P])=      0.000359626627
 orbitals (Q,E):
 ---------------
 A1/2 :362...381     ( 1.00    -0.1891)  ( 1.00    -0.1852)  ( 1.00    -0.1852)  ( 1.00    -0.1830)
                     ( 1.00    -0.1830)  ( 1.00    -0.1822)  ( 1.00    -0.1821)  ( 1.00    -0.1766)
                     ( 1.00    -0.1765)  ( 1.00    -0.1162)  ( 0.00    -0.0090)  ( 0.00    -0.0089)
                     ( 0.00    -0.0078)  ( 0.00    -0.0078)  ( 0.00    -0.0039)  ( 0.00    -0.0039)
                     ( 0.00     0.0011)  ( 0.00     0.0011)  ( 0.00     0.0033)  ( 0.00     0.0033)

 CYCLE   39
  SDIIS (wt  1.000): -0.0840 -0.0672 -0.0116  0.6213  0.0390 -0.3848  0.7778  1.2367 -2.0000  0.8728
  DIIS coefficients: -0.0840 -0.0672 -0.0116  0.6213  0.0390 -0.3848  0.7778  1.2367 -2.0000  0.8728
 SCF Error: norm([F,P])=      0.000731483328, max([F,P])=      0.000356869751
 orbitals (Q,E):
 ---------------
 A1/2 :362...381     ( 1.00    -0.1891)  ( 1.00    -0.1852)  ( 1.00    -0.1852)  ( 1.00    -0.1830)
                     ( 1.00    -0.1830)  ( 1.00    -0.1822)  ( 1.00    -0.1821)  ( 1.00    -0.1766)
                     ( 1.00    -0.1765)  ( 1.00    -0.1162)  ( 0.00    -0.0090)  ( 0.00    -0.0090)
                     ( 0.00    -0.0078)  ( 0.00    -0.0078)  ( 0.00    -0.0039)  ( 0.00    -0.0039)
                     ( 0.00     0.0011)  ( 0.00     0.0011)  ( 0.00     0.0033)  ( 0.00     0.0033)

 CYCLE   40
  SDIIS (wt  1.000): -0.0261 -0.1339  0.4611 -0.1014 -1.7842  1.0981  1.2970 -2.0000  0.8674  1.3220
  DIIS coefficients: -0.0261 -0.1339  0.4611 -0.1014 -1.7842  1.0981  1.2970 -2.0000  0.8674  1.3220
 SCF Error: norm([F,P])=      0.000731140841, max([F,P])=      0.000357977937
 orbitals (Q,E):
 ---------------
 A1/2 :362...381     ( 1.00    -0.1891)  ( 1.00    -0.1852)  ( 1.00    -0.1852)  ( 1.00    -0.1830)
                     ( 1.00    -0.1830)  ( 1.00    -0.1822)  ( 1.00    -0.1821)  ( 1.00    -0.1766)
                     ( 1.00    -0.1765)  ( 1.00    -0.1162)  ( 0.00    -0.0090)  ( 0.00    -0.0090)
                     ( 0.00    -0.0078)  ( 0.00    -0.0078)  ( 0.00    -0.0040)  ( 0.00    -0.0039)
                     ( 0.00     0.0010)  ( 0.00     0.0011)  ( 0.00     0.0033)  ( 0.00     0.0033)

 CYCLE   41
  SDIIS (wt  1.000): -0.1408  0.4141 -0.1096 -1.8701  0.9353  1.1107 -2.0000  0.6782  1.5694  0.4127
  DIIS coefficients: -0.1408  0.4141 -0.1096 -1.8701  0.9353  1.1107 -2.0000  0.6782  1.5694  0.4127
 SCF Error: norm([F,P])=      0.000730351032, max([F,P])=      0.000358975261
 orbitals (Q,E):
 ---------------
 A1/2 :362...381     ( 1.00    -0.1891)  ( 1.00    -0.1852)  ( 1.00    -0.1852)  ( 1.00    -0.1830)
                     ( 1.00    -0.1830)  ( 1.00    -0.1822)  ( 1.00    -0.1821)  ( 1.00    -0.1766)
                     ( 1.00    -0.1765)  ( 1.00    -0.1162)  ( 0.00    -0.0090)  ( 0.00    -0.0090)
[...]
     449        4.5533         0.000       
     448        4.5417         0.000       
     447        4.4082         0.000       
     446        4.4067         0.000       
     445        4.3941         0.000       
     444        4.3577         0.000       
     443        4.3416         0.000       
     442        4.2973         0.000       
     441        4.2767         0.000       
     440        4.2290         0.000       
     439        4.1895         0.000       
     438        4.1004         0.000       
     437        4.0767         0.000       
     436        4.0484         0.000       
     435        4.0250         0.000       
     434        4.0177         0.000       
     433        3.9904         0.000       
     432        3.9734         0.000       
     431        3.9330         0.000       
     430        3.8949         0.000       
     429        3.8264         0.000       
     428        3.8036         0.000       
     427        3.7659         0.000       
     426        3.7186         0.000       
     425        3.7033         0.000       
     424        3.5041         0.000       
     423        3.4907         0.000       
     422        3.4695         0.000       
     421        3.3876         0.000       
     420        3.3001         0.000       
     419        3.2551         0.000       
     418        3.1746         0.000       
     417        3.0621         0.000       
     416        2.9745         0.000       
     415        2.9494         0.000       
     414        2.8778         0.000       
     413        2.8023         0.000       
     412        2.5843         0.000       
     411        2.5478         0.000       
     410        2.4258         0.000       
     409        2.4242         0.000       
     408        2.4117         0.000       
     407        2.4098         0.000       
     406        2.3333         0.000       
     405        2.2931         0.000       
     404        2.2829         0.000       
     403        2.2554         0.000       
     402        2.2355         0.000       
     401        2.0412         0.000       
     400        2.0131         0.000       
     399        1.9243         0.000       
     398        1.8902         0.000       
     397        1.8642         0.000       
     396        1.8606         0.000       
     395        1.8497         0.000       
     394        1.8440         0.000       
     393        1.7619         0.000       
     392        1.7494         0.000       
     391        1.7403         0.000       
     390        1.7194         0.000       
     389        1.0053         0.000       
     388        1.0051         0.000       
     387        0.8963         0.000       
     386        0.8948         0.000       
     385        0.2141         0.000       
     384        0.2127         0.000       
     383        0.2049         0.000       
     382        0.2045         0.000       
     381        0.0906         0.000       
     380        0.0901         0.000       
     379        0.0295         0.000       
     378        0.0293         0.000       
     377       -0.1054         0.000       
     376       -0.1065         0.000       
     375       -0.2107         0.000       
     374       -0.2112         0.000       
     373       -0.2429         0.000       
     372       -0.2434         0.000 < LUMO
     371       -3.1683         1.000 < HOMO
     370       -4.8041         1.000       
     369       -4.8073         1.000       
     368       -4.9578         1.000       
     367       -4.9598         1.000       
     366       -4.9816         1.000       
     365       -4.9828         1.000       
     364       -5.0400         1.000       
     363       -5.0400         1.000       
     362       -5.1459         1.000       
     361       -5.1460         1.000       
     360       -5.1586         1.000       
     359       -5.1586         1.000       
     358       -5.7081         1.000       
     357       -5.7104         1.000       
     356       -5.7319         1.000       
     355       -5.7338         1.000       
     354       -5.9185         1.000       
     353       -5.9201         1.000       
     352       -6.0008         1.000       
     351       -6.0030         1.000       
     350       -6.0084         1.000       
     349       -6.0112         1.000       
     348       -6.0488         1.000       
     347       -6.0501         1.000       
     346       -6.1094         1.000       
     345       -6.1133         1.000       
     344       -6.1219         1.000       
     343       -6.1234         1.000       
     342       -6.1289         1.000       
     341       -6.1307         1.000       
     340       -6.1941         1.000       
     339       -6.1958         1.000       
     338       -6.3084         1.000       
     337       -6.3095         1.000       
     336       -6.3169         1.000       
     335       -6.3180         1.000       
     334       -6.3470         1.000       
     333       -6.3498         1.000       
     332       -6.4191         1.000       
     331       -6.4221         1.000       
     330       -6.4387         1.000       
     329       -6.4412         1.000       
     328       -6.4520         1.000       
     327       -6.4547         1.000       
     326       -6.5783         1.000       
     325       -6.5784         1.000       
     324       -6.5854         1.000       
     323       -6.5855         1.000       
     322       -6.5991         1.000       
     321       -6.5991         1.000       
     320       -6.7582         1.000       
     319       -6.7621         1.000       
     318       -6.7855         1.000       
     317       -6.7864         1.000       
     316       -7.0082         1.000       
     315       -7.0196         1.000       
     314       -7.0729         1.000       
     313       -7.0808         1.000       
     312       -7.1959         1.000       
     311       -7.1960         1.000       
     310       -7.2672         1.000       
     309       -7.2676         1.000       
     308       -7.4929         1.000       
     307       -7.4941         1.000       
     306       -7.9285         1.000       
     305       -7.9299         1.000       
     304       -8.8197         1.000       
     303       -8.8219         1.000       
     302       -8.8750         1.000       
     301       -8.8766         1.000       
     300       -8.9084         1.000       
     299       -8.9084         1.000       
     298       -8.9450         1.000       
     297       -8.9451         1.000       
     296       -8.9726         1.000       
     295       -8.9767         1.000       
     294       -9.0229         1.000       
     293       -9.0266         1.000       
     292      -10.8732         1.000       
     291      -10.8732         1.000       
     290      -10.8841         1.000       
     289      -10.8841         1.000       
     288      -10.9353         1.000       
     287      -10.9374         1.000       
     286      -11.0037         1.000       
     285      -11.0051         1.000       
     284      -11.0237         1.000       
     283      -11.0251         1.000       
     282      -11.1698         1.000       
     281      -11.1760         1.000       
     280      -11.8137         1.000       
     279      -11.8142         1.000       
     278      -11.8227         1.000       
     277      -11.8232         1.000       
     276      -11.8813         1.000       
     275      -11.8822         1.000       
     274      -11.9653         1.000       
     273      -11.9653         1.000       
     272      -11.9697         1.000       
     271      -11.9697         1.000       
     270      -12.0457         1.000       
     269      -12.0457         1.000       
     268      -12.1363         1.000       
     267      -12.1392         1.000       
     266      -12.3016         1.000       
     265      -12.3016         1.000       
     264      -12.4103         1.000       
     263      -12.4116         1.000       
     262      -12.4320         1.000       
     261      -12.4322         1.000       
     260      -12.6108         1.000       
     259      -12.6109         1.000       
     258      -12.6286         1.000       
     257      -12.6287         1.000       
     256      -12.7362         1.000       
     255      -12.7372         1.000       
     254      -12.7777         1.000       
     253      -12.7786         1.000       
     252      -12.7879         1.000       
     251      -12.7889         1.000       
     250      -12.9403         1.000       
     249      -12.9404         1.000       
     248      -12.9642         1.000       
     247      -12.9642         1.000       
     246      -12.9689         1.000       
     245      -12.9690         1.000       
     244      -14.2823         1.000       
     243      -14.2862         1.000       
     242      -14.3133         1.000       
     241      -14.3151         1.000       
     240      -14.3187         1.000       
     239      -14.3189         1.000       
     238      -14.3383         1.000       
     237      -14.3383         1.000       
     236      -14.4454         1.000       
     235      -14.4465         1.000       
     234      -14.4816         1.000       
     233      -14.4816         1.000       
     232      -14.5128         1.000       
     231      -14.5128         1.000       
     230      -14.5189         1.000       
     229      -14.5201         1.000       
     228      -14.5419         1.000       
     227      -14.5423         1.000       
     226      -14.6211         1.000       
     225      -14.6211         1.000       
     224      -14.8512         1.000       
     223      -14.8521         1.000       
     222      -14.9433         1.000       
     221      -14.9434         1.000       
     220      -18.2491         1.000       
     219      -18.3178         1.000       
     218      -19.7878         1.000       
     217      -20.0864         1.000       
     216      -20.1678         1.000       
     215      -20.3128         1.000       
     214      -21.1324         1.000       
     213      -21.1333         1.000       
     212      -22.4292         1.000       
     211      -22.6805         1.000       
     210      -22.9816         1.000       
     209      -23.0383         1.000       
     208      -25.7939         1.000       
     207      -25.7952         1.000       
     206      -26.0574         1.000       
     205      -26.0607         1.000       
     204      -26.0915         1.000       
     203      -26.0942         1.000       
     202      -26.1014         1.000       
     201      -26.1037         1.000       
     200      -26.2147         1.000       
     199      -26.2147         1.000       
     198      -26.2566         1.000       
     197      -26.2566         1.000       
     196      -26.2747         1.000       
     195      -26.2748         1.000       
     194      -26.5787         1.000       
     193      -26.5791         1.000       
     192      -26.6216         1.000       
     191      -26.6224         1.000       
     190      -26.6434         1.000       
     189      -26.6467         1.000       
     188      -26.8061         1.000       
     187      -26.8061         1.000       
     186      -26.8624         1.000       
     185      -26.8625         1.000       
     184      -26.9033         1.000       
     183      -26.9033         1.000       
     182      -27.8743         1.000       
     181      -27.8743         1.000       
     180      -27.9028         1.000       
     179      -27.9028         1.000       
     178      -27.9757         1.000       
     177      -27.9766         1.000       
     176      -28.0378         1.000       
     175      -28.0385         1.000       
     174      -28.1959         1.000       
     173      -28.1959         1.000       
     172      -28.2441         1.000       
     171      -28.2445         1.000       
     170      -32.4184         1.000       
     169      -32.4185         1.000       
     168      -32.4376         1.000       
     167      -32.4383         1.000       
     166      -32.4489         1.000       
     165      -32.4496         1.000       
     164      -32.6109         1.000       
     163      -32.6109         1.000       
     162      -32.6328         1.000       
     161      -32.6328         1.000       
     160      -32.6367         1.000       
     159      -32.6367         1.000       
     158      -38.7945         1.000       
     157      -39.2205         1.000       
     156      -40.8022         1.000       
     155      -40.8033         1.000       
     154     -108.1836         1.000       
     153     -108.5030         1.000       
     152     -108.6513         1.000       
     151     -108.7281         1.000       
     150     -108.9467         1.000       
     149     -109.0377         1.000       
     148     -111.5517         1.000       
     147     -111.8700         1.000       
     146     -112.7349         1.000       
     145     -112.7360         1.000       
     144     -112.7590         1.000       
     143     -112.8040         1.000       
     142     -112.8051         1.000       
     141     -112.9075         1.000       
     140     -112.9083         1.000       
     139     -113.0614         1.000       
     138     -116.1025         1.000       
     137     -116.1029         1.000       
     136     -116.2333         1.000       
     135     -116.2336         1.000       
     134     -207.9937         1.000       
     133     -208.0346         1.000       
     132     -208.4940         1.000       
     131     -208.6600         1.000       
     130     -212.5630         1.000       
     129     -212.5639         1.000       
     128     -212.7535         1.000       
     127     -212.7544         1.000       
     126     -227.1027         1.000       
     125     -227.7792         1.000       
     124     -231.7825         1.000       
     123     -231.7826         1.000       
     122     -284.9385         1.000       
     121     -285.6022         1.000       
     120     -289.7978         1.000       
     119     -289.7989         1.000       
     118     -396.1097         1.000       
     117     -396.1101         1.000       
     116     -396.1120         1.000       
     115     -396.1124         1.000       
     114     -396.1286         1.000       
     113     -396.1289         1.000       
     112     -396.2631         1.000       
     111     -396.2631         1.000       
     110     -396.2647         1.000       
     109     -396.2647         1.000       
     108     -396.2665         1.000       
     107     -396.2665         1.000       
     106     -519.4604         1.000       
     105     -519.4626         1.000       
     104     -520.6286         1.000       
     103     -520.6290         1.000       
     102     -520.6469         1.000       
     101     -520.6472         1.000       
     100     -520.6555         1.000       
      99     -520.6559         1.000       
      98     -520.7385         1.000       
      97     -520.7403         1.000       
      96     -520.7504         1.000       
      95     -520.7523         1.000       
      94     -520.7600         1.000       
      93     -520.7617         1.000       
      92     -520.7928         1.000       
      91     -520.7950         1.000       
      90     -520.7981         1.000       
      89     -520.8001         1.000       
      88     -520.8124         1.000       
      87     -520.8144         1.000       
      86     -520.8155         1.000       
      85     -520.8155         1.000       
      84     -520.8167         1.000       
      83     -520.8167         1.000       
      82     -520.8243         1.000       
      81     -520.8243         1.000       
      80     -520.9504         1.000       
      79     -520.9505         1.000       
      78     -520.9518         1.000       
      77     -520.9518         1.000       
      76     -520.9553         1.000       
      75     -520.9554         1.000       
      74     -521.0026         1.000       
      73     -521.0026         1.000       
      72     -521.0077         1.000       
      71     -521.0078         1.000       
      70     -521.0079         1.000       
      69     -521.0079         1.000       
      68     -522.6353         1.000       
      67     -522.6353         1.000       
      66     -522.6384         1.000       
      65     -522.6384         1.000       
      64     -522.6807         1.000       
      63     -522.6807         1.000       
      62     -522.7056         1.000       
      61     -522.7067         1.000       
      60     -522.7713         1.000       
      59     -522.7723         1.000       
      58     -522.7972         1.000       
      57     -522.7983         1.000       
      56     -870.1124         1.000       
      55     -870.2253         1.000       
      54     -870.2375         1.000       
      53     -870.2657         1.000       
      52     -870.2991         1.000       
      51     -870.3721         1.000       
      50     -875.1297         1.000       
      49     -875.1299         1.000       
      48     -875.2071         1.000       
      47     -875.2073         1.000       
      46     -875.3101         1.000       
      45     -875.3103         1.000       
      44     -888.7733         1.000       
      43     -888.8916         1.000       
      42     -889.1077         1.000       
      41     -889.1418         1.000       
      40     -893.7967         1.000       
      39     -893.7968         1.000       
      38     -893.9294         1.000       
      37     -893.9294         1.000       
      36    -1159.8446         1.000       
      35    -1159.8883         1.000       
      34    -1160.0054         1.000       
      33    -1160.1016         1.000       
      32    -1164.9127         1.000       
      31    -1164.9130         1.000       
      30    -1165.0894         1.000       
      29    -1165.0897         1.000       
      28    -1248.1418         1.000       
      27    -1248.3413         1.000       
      26    -1253.2232         1.000       
      25    -1253.2232         1.000       
      24    -1401.9863         1.000       
      23    -1402.2053         1.000       
      22    -1407.1423         1.000       
      21    -1407.1426         1.000       
      20    -5665.4048         1.000       
      19    -5665.4052         1.000       
      18    -5665.4167         1.000       
      17    -5665.4191         1.000       
      16    -5669.5772         1.000       
      15    -5669.5772         1.000       
      14    -5669.6012         1.000       
      13    -5669.6012         1.000       
      12    -6111.7214         1.000       
      11    -6111.7215         1.000       
      10    -6115.8654         1.000       
       9    -6115.8654         1.000       
       8    -6477.4814         1.000       
       7    -6477.4833         1.000       
       6    -6481.7237         1.000       
       5    -6481.7237         1.000       
       4   -40315.7432         1.000       
       3   -40315.7432         1.000       
       2   -40319.5256         1.000       
       1   -40319.5256         1.000       
Attempting to store the results of the failed calculation ...

AMS application finished. Exiting.
NORMAL TERMINATION
     Total cpu time:  187857.95
  Total system time:    5525.21
 Total elapsed time:  193439.18
