

 Parallel Execution: Process Information
 ==============================================================================
 Rank   Node Name                              NodeID   MyNodeRank  NodeMaster
    0   u-0-8.local                               0          0          0
    1   u-0-8.local                               0          1         -1
    2   u-0-8.local                               0          2         -1
    3   u-0-8.local                               0          3         -1
    4   u-0-8.local                               1          0          1
    5   u-0-8.local                               1          1         -1
    6   u-0-8.local                               1          2         -1
    7   u-0-8.local                               1          3         -1
    8   u-0-8.local                               2          0          2
    9   u-0-8.local                               2          1         -1
   10   u-0-8.local                               2          2         -1
   11   u-0-8.local                               2          3         -1
   12   u-0-8.local                               3          0          3
   13   u-0-8.local                               3          1         -1
   14   u-0-8.local                               3          2         -1
   15   u-0-8.local                               3          3         -1
 ==============================================================================


May use up to 31228MB of RAM as shared memory on node 0
May use up to 31250MB of RAM as shared memory on node 1
May use up to 31250MB of RAM as shared memory on node 3
May use up to 31250MB of RAM as shared memory on node 2

 *******************************************************************************
 *                                                                             *
 *  --------------------------------                                           *
 *   Amsterdam Modeling Suite (AMS)              2023.101                      *
 *  --------------------------------                                           *
 *                                               r111868 2023-03-31            *
 *                                                                             *
 *                                                                             *
 *                              =================                              *
 *                              |               |                              *
 *                              |     A M S     |                              *
 *                              |               |                              *
 *                              =================                              *
 *                                                                             *
 *                                                                             *
 *   Online information and documentation:  https://www.scm.com/support/       *
 *   E-mail:  support@scm.com   info@scm.com                                   *
 *                                                                             *
 *   Scientific publications using AMS results must be properly referenced     *
 *   See the User Manuals (or the web site) for recommended citations          *
 *   The terms and conditions of the End User License Agreement apply to       *
 *   the use of AMS, https://www.scm.com/license-terms/                        *
 *                                                                             *
 **********************  x86_64_linux_intel / intelmpi  ************************
 
 Licensed to: Dr. Val?rie Vallet / Laboratoire PhLAM UMR 8523 / Villeneuve d'Ascq Cedex / FRANCE 2023-12-11 15:27:25
 SCM User ID: u10325
  
 AMS 2023.101  RunTime: Feb15-2024 15:58:33  ShM Nodes: 4  Procs: 16

 AMS jobname: CeIV-O-CeIV.eclipsed.x2c-so.pbe0
 AMS jobid  : 747147016

 Start   directory: /home/vallet/ANL/CeIV-dimer/CeIV-O-CeIV/eclipsed-structure-Ce-dinuclear2/geom-pbe0-COSMO/sp-pbe0-SO/
 Results directory: /home/vallet/ANL/CeIV-dimer/CeIV-O-CeIV/eclipsed-structure-Ce-dinuclear2/geom-pbe0-COSMO/sp-pbe0-SO/CeIV-O-CeIV.eclipsed.x2c-so.pbe0.results/
 Scratch directory: /state/partition2/vallet/1007691.phlam-s-sakura/amstmp_CeIV-O-CeIV.eclipsed.x2c-so.pbe0_kid0.747147016/


 Communication costs MPI_COMM_WORLD:     -0.387 usec per message,   0.0450 usec per 8-byte item
 Communication costs for intra-node:      0.537 usec per message,   0.0083 usec per 8-byte item

 RNG seed: 753463428 -1628973211 1787889586 -798028485 313768879 1807415528 369230909 1912094446



                     *************************************************************************
                     *  ADF 2023.101  RunTime: Feb15-2024 15:58:33  ShM Nodes: 4  Procs: 16  *
                     *************************************************************************
  

       ****************************
       * SINGLE POINT CALCULATION *
       ****************************
 
--------
Geometry
--------
Formula: H12Ce2N6O25
Atoms
  Index Symbol   x (angstrom)   y (angstrom)   z (angstrom)
      1     Ce     0.47842200    -0.00332700     1.96339500
      2     Ce    -0.42058500    -0.02149100    -2.00026100
      3      H    -0.15781600     2.59934100     0.60547200
      4      H     0.17811400    -2.96241100    -1.39919000
      5      H     0.93236800     3.00516200     1.61284800
      6      H    -1.35173300    -2.86219500    -1.22740100
      7      H     1.53886200     0.82007600     4.63603300
      8      H    -1.95887900    -0.53370900    -4.54332300
      9      H     0.97058600     2.16748300     4.14979200
     10      H    -1.77848000    -1.96144300    -3.97032900
     11      H     0.10745100    -1.56616700     4.65712100
     12      H    -0.19294400     1.71834100    -4.60371800
     13      H     1.49051900    -2.03298800     4.16171600
     14      H    -1.44690300     2.27785800    -3.90453600
     15      N    -2.21414200     0.66367500     2.95638300
     16      N     1.86185100    -1.20847200    -3.44018900
     17      N    -0.19562100    -2.84747800     1.66396200
     18      N     1.00620700     2.57553200    -1.76244800
     19      N     3.38286900     0.36823300     1.68186500
     20      N    -3.21950500     0.19905000    -1.13330100
     21      O     0.18267500    -0.14110700    -0.05758700
     22      O    -1.95330300     0.63845700     1.72846700
     23      O     1.76998100    -1.22024200    -2.18229100
     24      O    -1.25205500     0.37360700     3.72342600
     25      O     0.90661200    -0.65617900    -4.04912100
     26      O    -3.30495300     0.94486300     3.38129500
     27      O     2.79934800    -1.69122200    -4.01928500
     28      O     0.13565500     2.46719400     1.52440400
     29      O    -0.61148100    -2.53538000    -1.75306100
     30      O    -1.04971300    -1.98647300     2.00467300
     31      O     1.50754800     1.57496100    -2.33109500
     32      O     0.97686600    -2.41563000     1.51350300
     33      O    -0.17668600     2.42189100    -1.33769900
     34      O    -0.48298600    -4.00479000     1.49404900
     35      O     1.60361300     3.61031300    -1.62678400
     36      O     1.48789000     1.40349800     3.86687100
     37      O    -1.98494700    -1.05068800    -3.72801900
     38      O     2.86529000    -0.58351700     2.33075500
     39      O    -2.59292700     1.13608500    -1.70499100
     40      O     2.56999400     1.16387100     1.14712300
     41      O    -2.56203900    -0.85329600    -0.94760200
     42      O     4.57518800     0.50116100     1.58791200
     43      O    -4.36724600     0.31523000    -0.79298700
     44      O     0.89503100    -1.27420300     4.18236700
     45      O    -0.94799700     1.46652900    -4.05821700
 
Total System Charge             0.00000
Bonding info available!
 
 
----------------
ADF Engine Input
----------------
 
 Basis
 Type TZ2P
 Core None
 End
 XC
 Hybrid PBE0
 End
 Relativity
 Level Spin-Orbit
 Formalism X2C
 SpinOrbitMagnetization NonCollinear
 End
 

 Title: *** (NO TITLE) ***

 *** adf ***



 ===========================
 A T T A C H E D   F I L E S
 ===========================
  



 ===============================
 M O D E L   P A R A M E T E R S
 ===============================
  
 DENSITY FUNCTIONAL POTENTIAL (scf)
    Hybrid:                            PBE0                                    == Not Default ==

 SPIN  (restricted / unrestr.)
    Molecule:                          Restricted                               
    Fragments:                         Restricted                               

 OTHER ASPECTS
    Relativistic Corrections:          Spin-Orbit (X2C,MAPA)                   == Not Default ==

    Nuclear Charge Density Model:      Point Charge Nuclei                      
    Core Treatment:                    Frozen Orbital(s)                        

    Hyperfine or Zeeman Interaction:   ---                                      


 Fragment File(s)
 ----------------
 Ce:
         file : /home/vallet/ANL/CeIV-dimer/CeIV-O-CeIV/eclipsed-structure-Ce-dinuclear2/geom-pbe0-COSMO/sp-pbe0-SO/CeIV-O-CeIV.eclipsed.x2c-so.pbe0.results/t21.190B7557.Ce
         jobid: 0
         title: Cerium (TZP, all electron)
 H:
         file : /home/vallet/ANL/CeIV-dimer/CeIV-O-CeIV/eclipsed-structure-Ce-dinuclear2/geom-pbe0-COSMO/sp-pbe0-SO/CeIV-O-CeIV.eclipsed.x2c-so.pbe0.results/t21.62BC803D.H
         jobid: 0
         title: Hydrogen (TZ2P)
 N:
         file : /home/vallet/ANL/CeIV-dimer/CeIV-O-CeIV/eclipsed-structure-Ce-dinuclear2/geom-pbe0-COSMO/sp-pbe0-SO/CeIV-O-CeIV.eclipsed.x2c-so.pbe0.results/t21.131ABD2B.N
         jobid: 0
         title: Nitrogen (TZ2P)
 O:
         file : /home/vallet/ANL/CeIV-dimer/CeIV-O-CeIV/eclipsed-structure-Ce-dinuclear2/geom-pbe0-COSMO/sp-pbe0-SO/CeIV-O-CeIV.eclipsed.x2c-so.pbe0.results/t21.5810AA2E.O
         jobid: 0
         title: Oxygen (TZ2P)



 ===============
 G E O M E T R Y  ***  3D  Molecule  ***
 ===============
  

 ATOMS
 =====                            X Y Z                    CHARGE
                                (Angstrom)             Nucl     +Core       At.Mass
                       --------------------------    ----------------       -------
    1  Ce              0.4784   -0.0033    1.9634     58.00     58.00      139.9054
    2  Ce             -0.4206   -0.0215   -2.0003     58.00     58.00      139.9054
    3  H              -0.1578    2.5993    0.6055      1.00      1.00        1.0078
    4  H               0.1781   -2.9624   -1.3992      1.00      1.00        1.0078
    5  H               0.9324    3.0052    1.6128      1.00      1.00        1.0078
    6  H              -1.3517   -2.8622   -1.2274      1.00      1.00        1.0078
    7  H               1.5389    0.8201    4.6360      1.00      1.00        1.0078
    8  H              -1.9589   -0.5337   -4.5433      1.00      1.00        1.0078
    9  H               0.9706    2.1675    4.1498      1.00      1.00        1.0078
   10  H              -1.7785   -1.9614   -3.9703      1.00      1.00        1.0078
   11  H               0.1075   -1.5662    4.6571      1.00      1.00        1.0078
   12  H              -0.1929    1.7183   -4.6037      1.00      1.00        1.0078
   13  H               1.4905   -2.0330    4.1617      1.00      1.00        1.0078
   14  H              -1.4469    2.2779   -3.9045      1.00      1.00        1.0078
   15  N              -2.2141    0.6637    2.9564      7.00      7.00       14.0031
   16  N               1.8619   -1.2085   -3.4402      7.00      7.00       14.0031
   17  N              -0.1956   -2.8475    1.6640      7.00      7.00       14.0031
   18  N               1.0062    2.5755   -1.7624      7.00      7.00       14.0031
   19  N               3.3829    0.3682    1.6819      7.00      7.00       14.0031
   20  N              -3.2195    0.1991   -1.1333      7.00      7.00       14.0031
   21  O               0.1827   -0.1411   -0.0576      8.00      8.00       15.9949
   22  O              -1.9533    0.6385    1.7285      8.00      8.00       15.9949
   23  O               1.7700   -1.2202   -2.1823      8.00      8.00       15.9949
   24  O              -1.2521    0.3736    3.7234      8.00      8.00       15.9949
   25  O               0.9066   -0.6562   -4.0491      8.00      8.00       15.9949
   26  O              -3.3050    0.9449    3.3813      8.00      8.00       15.9949
   27  O               2.7993   -1.6912   -4.0193      8.00      8.00       15.9949
   28  O               0.1357    2.4672    1.5244      8.00      8.00       15.9949
   29  O              -0.6115   -2.5354   -1.7531      8.00      8.00       15.9949
   30  O              -1.0497   -1.9865    2.0047      8.00      8.00       15.9949
   31  O               1.5075    1.5750   -2.3311      8.00      8.00       15.9949
   32  O               0.9769   -2.4156    1.5135      8.00      8.00       15.9949
   33  O              -0.1767    2.4219   -1.3377      8.00      8.00       15.9949
   34  O              -0.4830   -4.0048    1.4940      8.00      8.00       15.9949
   35  O               1.6036    3.6103   -1.6268      8.00      8.00       15.9949
   36  O               1.4879    1.4035    3.8669      8.00      8.00       15.9949
   37  O              -1.9849   -1.0507   -3.7280      8.00      8.00       15.9949
   38  O               2.8653   -0.5835    2.3308      8.00      8.00       15.9949
   39  O              -2.5929    1.1361   -1.7050      8.00      8.00       15.9949
   40  O               2.5700    1.1639    1.1471      8.00      8.00       15.9949
   41  O              -2.5620   -0.8533   -0.9476      8.00      8.00       15.9949
   42  O               4.5752    0.5012    1.5879      8.00      8.00       15.9949
   43  O              -4.3672    0.3152   -0.7930      8.00      8.00       15.9949
   44  O               0.8950   -1.2742    4.1824      8.00      8.00       15.9949
   45  O              -0.9480    1.4665   -4.0582      8.00      8.00       15.9949


 FRAGMENTS
 =========                                     Atoms in this Fragment     Cart. coord.s (Angstrom)
                                               -------------------------------------------------------
    1  Ce                                                1  Ce           0.4784   -0.0033    1.9634
    2  Ce                                                2  Ce          -0.4206   -0.0215   -2.0003
    3  H                                                 3  H           -0.1578    2.5993    0.6055
    4  H                                                 4  H            0.1781   -2.9624   -1.3992
    5  H                                                 5  H            0.9324    3.0052    1.6128
    6  H                                                 6  H           -1.3517   -2.8622   -1.2274
    7  H                                                 7  H            1.5389    0.8201    4.6360
    8  H                                                 8  H           -1.9589   -0.5337   -4.5433
    9  H                                                 9  H            0.9706    2.1675    4.1498
   10  H                                                10  H           -1.7785   -1.9614   -3.9703
   11  H                                                11  H            0.1075   -1.5662    4.6571
   12  H                                                12  H           -0.1929    1.7183   -4.6037
   13  H                                                13  H            1.4905   -2.0330    4.1617
   14  H                                                14  H           -1.4469    2.2779   -3.9045
   15  N                                                15  N           -2.2141    0.6637    2.9564
   16  N                                                16  N            1.8619   -1.2085   -3.4402
   17  N                                                17  N           -0.1956   -2.8475    1.6640
   18  N                                                18  N            1.0062    2.5755   -1.7624
   19  N                                                19  N            3.3829    0.3682    1.6819
   20  N                                                20  N           -3.2195    0.1991   -1.1333
   21  O                                                21  O            0.1827   -0.1411   -0.0576
   22  O                                                22  O           -1.9533    0.6385    1.7285
   23  O                                                23  O            1.7700   -1.2202   -2.1823
   24  O                                                24  O           -1.2521    0.3736    3.7234
   25  O                                                25  O            0.9066   -0.6562   -4.0491
   26  O                                                26  O           -3.3050    0.9449    3.3813
   27  O                                                27  O            2.7993   -1.6912   -4.0193
   28  O                                                28  O            0.1357    2.4672    1.5244
   29  O                                                29  O           -0.6115   -2.5354   -1.7531
   30  O                                                30  O           -1.0497   -1.9865    2.0047
   31  O                                                31  O            1.5075    1.5750   -2.3311
   32  O                                                32  O            0.9769   -2.4156    1.5135
   33  O                                                33  O           -0.1767    2.4219   -1.3377
   34  O                                                34  O           -0.4830   -4.0048    1.4940
   35  O                                                35  O            1.6036    3.6103   -1.6268
   36  O                                                36  O            1.4879    1.4035    3.8669
   37  O                                                37  O           -1.9849   -1.0507   -3.7280
   38  O                                                38  O            2.8653   -0.5835    2.3308
   39  O                                                39  O           -2.5929    1.1361   -1.7050
   40  O                                                40  O            2.5700    1.1639    1.1471
   41  O                                                41  O           -2.5620   -0.8533   -0.9476
   42  O                                                42  O            4.5752    0.5012    1.5879
   43  O                                                43  O           -4.3672    0.3152   -0.7930
   44  O                                                44  O            0.8950   -1.2742    4.1824
   45  O                                                45  O           -0.9480    1.4665   -4.0582



 =====================================
 S Y M M E T R Y ,   E L E C T R O N S
 =====================================
  
 Symmetry: NOSYM

 Double Group Irreducible Representations (spinor symmetry)
 -----------------------------------------------------------
 A1/2

 Symmetry is NOT used when fitting density


 Configuration of Valence Electrons
 ==================================
 ( determined in the SCF procedure )

 Total:   370

 Net Charge: 0 (Nuclei minus Electrons)

 Aufbau principle for MO occupations will be applied through SCF cycle no.     150
 Thereafter, the program will assign electrons to MOs that are spatially
 similar to the occupied MOs in a "reference" cycle ("KeepOrbitals").
 The reference cycle is always the PREVIOUS cycle: it will evolve with
 the SCF procedure.
1
 ***************************************************************************************************



                                      ****************************************
                                      *  B U I L D : (Fragments, Functions)  *
                                      ****************************************
  

 Total nr. of (C)SFOs (summation over all irreps) :  1138

 Specify PRINT SFO in the input file to get a full list

 Nr. of SFOs for ir.rep.           A :  1138



 ================================
 (Slater-type)  F U N C T I O N S  ***  (Basis and Fit)  ***
 ================================
  

 Atom Type    1  (Ce)
 ==============

 Valence Basis Sets:  34
 -----------------------
   1 S  452.000000
   1 S  112.400000
   1 S   59.900000
   2 S   67.200000
   2 S   25.900000
   3 S   13.850000
   3 S   11.000000
   4 S   10.500000
   4 S    6.600000
   5 S    4.300000
   5 S    2.800000
   6 S    1.950000
   6 S    1.250000
   6 S    0.820000
   2 P  112.400000
   2 P   40.100000
   2 P   24.950000
   3 P   14.600000
   3 P   11.200000
   4 P    8.300000
   4 P    5.650000
   5 P    3.650000
   5 P    2.250000
   3 D   18.900000
   3 D   11.500000
   4 D    7.550000
   4 D    4.650000
   5 D    2.900000
   5 D    1.600000
   5 D    0.900000
   4 F    8.150000
   4 F    3.800000
   4 F    1.650000
   6 P    1.250000

 Charge Fitting Sets (for the computation of the Coulomb Potential):  73
 -----------------------------------------------------------------------
   1 S  904.000000
   1 S  677.300000
   1 S  507.450000
   1 S  380.195000
   1 S  284.852000
   1 S  213.418000
   1 S  159.898000
   1 S  119.800000
   1 S   71.430000
   2 S   78.880000
   2 S   52.890000
   3 S   52.070000
   3 S   37.160000
   4 S   35.060000
   4 S   26.040000
   5 S   24.090000
   5 S   18.410000
   6 S   16.860000
   6 S   13.160000
   7 S   11.990000
   7 S    9.520000
   8 S    8.650000
   8 S    6.960000
   9 S    6.310000
   9 S    5.150000
  10 S    4.660000
  10 S    3.840000
  10 S    3.160000
  11 S    2.860000
  11 S    2.380000
  11 S    1.970000
  11 S    1.640000
   2 P   84.850000
   3 P   69.680000
   4 P   56.300000
   5 P   45.370000
   5 P   30.410000
   6 P   24.560000
   6 P   17.000000
   7 P   13.780000
   7 P    9.790000
   8 P    7.970000
   8 P    5.780000
   9 P    4.730000
   9 P    3.490000
  10 P    2.870000
  10 P    2.150000
   3 D   71.400000
   4 D   50.910000
   5 D   36.700000
   6 D   26.770000
   7 D   19.760000
   7 D   12.810000
   8 D    9.560000
   8 D    6.360000
   9 D    4.790000
   9 D    3.260000
  10 D    2.480000
  10 D    1.720000
   4 F   63.700000
   5 F   39.060000
   6 F   24.580000
   7 F   15.830000
   8 F   10.400000
   8 F    6.110000
   9 F    4.080000
   9 F    2.470000
   5 G   28.750000
   6 G   16.000000
   7 G    9.190000
   8 G    5.430000
   9 G    3.280000
   9 G    1.800000

 Atom Type    2  (H)
 ==============

 Valence Basis Sets:   5
 -----------------------
   1 S    0.690000
   1 S    0.920000
   1 S    1.580000
   2 P    1.250000
   3 D    2.500000

 Charge Fitting Sets (for the computation of the Coulomb Potential):  11
 -----------------------------------------------------------------------
   1 S    3.160000
   1 S    2.090000
   1 S    1.380000
   2 S    1.500000
   2 P    4.000000
   2 P    2.650000
   2 P    1.750000
   3 D    4.000000
   3 D    2.500000
   4 F    3.000000
   5 G    4.000000

 Atom Type    3  (N)
 ==============

 Valence Basis Sets:  10
 -----------------------
   1 S    8.740000
   1 S    5.900000
   2 S    5.150000
   2 S    2.500000
   2 S    1.500000
   2 P    3.680000
   2 P    1.880000
   2 P    1.000000
   3 D    2.200000
   4 F    3.300000

 Charge Fitting Sets (for the computation of the Coulomb Potential):  22
 -----------------------------------------------------------------------
   1 S   17.480000
   2 S   20.150000
   2 S   13.990000
   2 S    9.710000
   2 S    6.740000
   3 S    6.860000
   3 S    5.040000
   3 S    3.700000
   3 S    2.720000
   3 S    2.000000
   2 P   11.320000
   2 P    6.730000
   3 P    5.920000
   3 P    3.820000
   3 P    2.460000
   3 D    8.100000
   3 D    5.080000
   3 D    3.190000
   3 D    2.000000
   4 F    5.800000
   4 F    3.600000
   5 G    4.500000

 Atom Type    4  (O)
 ==============

 Valence Basis Sets:  10
 -----------------------
   1 S    9.800000
   1 S    6.800000
   2 S    7.580000
   2 S    2.880000
   2 S    1.720000
   2 P    4.080000
   2 P    2.080000
   2 P    1.120000
   3 D    2.000000
   4 F    3.000000

 Charge Fitting Sets (for the computation of the Coulomb Potential):  22
 -----------------------------------------------------------------------
   1 S   19.600000
   2 S   22.600000
   2 S   15.680000
   2 S   10.890000
   2 S    7.560000
   3 S    7.690000
   3 S    5.650000
   3 S    4.150000
   3 S    3.050000
   3 S    2.240000
   2 P   12.860000
   2 P    7.680000
   3 P    6.780000
   3 P    4.390000
   3 P    2.840000
   3 D    8.800000
   3 D    5.580000
   3 D    3.530000
   3 D    2.240000
   4 F    6.200000
   4 F    3.700000
   5 G    4.500000


 BAS: List of all Elementary Cartesian Basis Functions
 =====================================================

 The numbering in the list below (to the right of the function characteristics) is referred
 to in print-outs of MO eigenvectors and Mulliken populations in the BAS representation
 (as contrasted to the SFO representation).

 Notes:
 1. The functions are characterized by a polynomial prefactor (powers of x,y,z and r) and
    an exponential decay factor alpha.
 2. Since the basis sets are specific for an atom TYPE, the individual functions occur on
    all atoms of that type.
 3. The word 'Core' in the left margin signals that it is a Core Function (CF) : not a
    degree of freedom in the valence set, but only used to ensure orthogonalization of
    the other valence basis functions on the frozen Core Orbitals.


 (power of) X  Y  Z  R     Alpha  on Atom
            ==========     =====     ==========

 Ce                                   1    2
                                  ---------------------------------------------------------------------------
            0  0  0  0   452.000      1  117
            0  0  0  0   112.400      2  118
            0  0  0  0    59.900      3  119
            0  0  0  1    67.200      4  120
            0  0  0  1    25.900      5  121
            0  0  0  2    13.850      6  122
            0  0  0  2    11.000      7  123
            0  0  0  3    10.500      8  124
            0  0  0  3     6.600      9  125
            0  0  0  4     4.300     10  126
            0  0  0  4     2.800     11  127
            0  0  0  5     1.950     12  128
            0  0  0  5     1.250     13  129
            0  0  0  5     0.820     14  130
            1  0  0  0   112.400     15  131
            0  1  0  0   112.400     16  132
            0  0  1  0   112.400     17  133
            1  0  0  0    40.100     18  134
            0  1  0  0    40.100     19  135
            0  0  1  0    40.100     20  136
            1  0  0  0    24.950     21  137
            0  1  0  0    24.950     22  138
            0  0  1  0    24.950     23  139
            1  0  0  1    14.600     24  140
            0  1  0  1    14.600     25  141
            0  0  1  1    14.600     26  142
            1  0  0  1    11.200     27  143
            0  1  0  1    11.200     28  144
            0  0  1  1    11.200     29  145
            1  0  0  2     8.300     30  146
            0  1  0  2     8.300     31  147
            0  0  1  2     8.300     32  148
            1  0  0  2     5.650     33  149
            0  1  0  2     5.650     34  150
            0  0  1  2     5.650     35  151
            1  0  0  3     3.650     36  152
            0  1  0  3     3.650     37  153
            0  0  1  3     3.650     38  154
            1  0  0  3     2.250     39  155
            0  1  0  3     2.250     40  156
            0  0  1  3     2.250     41  157
            2  0  0  0    18.900     42  158
            1  1  0  0    18.900     43  159
            1  0  1  0    18.900     44  160
            0  2  0  0    18.900     45  161
            0  1  1  0    18.900     46  162
            0  0  2  0    18.900     47  163
            2  0  0  0    11.500     48  164
            1  1  0  0    11.500     49  165
            1  0  1  0    11.500     50  166
            0  2  0  0    11.500     51  167
            0  1  1  0    11.500     52  168
            0  0  2  0    11.500     53  169
            2  0  0  1     7.550     54  170
            1  1  0  1     7.550     55  171
            1  0  1  1     7.550     56  172
            0  2  0  1     7.550     57  173
            0  1  1  1     7.550     58  174
            0  0  2  1     7.550     59  175
            2  0  0  1     4.650     60  176
            1  1  0  1     4.650     61  177
            1  0  1  1     4.650     62  178
            0  2  0  1     4.650     63  179
            0  1  1  1     4.650     64  180
            0  0  2  1     4.650     65  181
            2  0  0  2     2.900     66  182
            1  1  0  2     2.900     67  183
            1  0  1  2     2.900     68  184
            0  2  0  2     2.900     69  185
            0  1  1  2     2.900     70  186
            0  0  2  2     2.900     71  187
            2  0  0  2     1.600     72  188
            1  1  0  2     1.600     73  189
            1  0  1  2     1.600     74  190
            0  2  0  2     1.600     75  191
            0  1  1  2     1.600     76  192
            0  0  2  2     1.600     77  193
            2  0  0  2     0.900     78  194
            1  1  0  2     0.900     79  195
            1  0  1  2     0.900     80  196
            0  2  0  2     0.900     81  197
            0  1  1  2     0.900     82  198
            0  0  2  2     0.900     83  199
            3  0  0  0     8.150     84  200
            2  1  0  0     8.150     85  201
            2  0  1  0     8.150     86  202
            1  2  0  0     8.150     87  203
            1  1  1  0     8.150     88  204
            1  0  2  0     8.150     89  205
            0  3  0  0     8.150     90  206
            0  2  1  0     8.150     91  207
            0  1  2  0     8.150     92  208
            0  0  3  0     8.150     93  209
            3  0  0  0     3.800     94  210
            2  1  0  0     3.800     95  211
            2  0  1  0     3.800     96  212
            1  2  0  0     3.800     97  213
            1  1  1  0     3.800     98  214
            1  0  2  0     3.800     99  215
            0  3  0  0     3.800    100  216
            0  2  1  0     3.800    101  217
            0  1  2  0     3.800    102  218
            0  0  3  0     3.800    103  219
            3  0  0  0     1.650    104  220
            2  1  0  0     1.650    105  221
            2  0  1  0     1.650    106  222
            1  2  0  0     1.650    107  223
            1  1  1  0     1.650    108  224
            1  0  2  0     1.650    109  225
            0  3  0  0     1.650    110  226
            0  2  1  0     1.650    111  227
            0  1  2  0     1.650    112  228
            0  0  3  0     1.650    113  229
            1  0  0  4     1.250    114  230
            0  1  0  4     1.250    115  231
            0  0  1  4     1.250    116  232

 H                                    3    4    5    6    7    8    9   10   11   12   13   14
                                  ---------------------------------------------------------------------------
            0  0  0  0     0.690    233  245  257  269  281  293  305  317  329  341  353  365
            0  0  0  0     0.920    234  246  258  270  282  294  306  318  330  342  354  366
            0  0  0  0     1.580    235  247  259  271  283  295  307  319  331  343  355  367
            1  0  0  0     1.250    236  248  260  272  284  296  308  320  332  344  356  368
            0  1  0  0     1.250    237  249  261  273  285  297  309  321  333  345  357  369
            0  0  1  0     1.250    238  250  262  274  286  298  310  322  334  346  358  370
            2  0  0  0     2.500    239  251  263  275  287  299  311  323  335  347  359  371
            1  1  0  0     2.500    240  252  264  276  288  300  312  324  336  348  360  372
            1  0  1  0     2.500    241  253  265  277  289  301  313  325  337  349  361  373
            0  2  0  0     2.500    242  254  266  278  290  302  314  326  338  350  362  374
            0  1  1  0     2.500    243  255  267  279  291  303  315  327  339  351  363  375
            0  0  2  0     2.500    244  256  268  280  292  304  316  328  340  352  364  376

 N                                   15   16   17   18   19   20
                                  ---------------------------------------------------------------------------
            0  0  0  0     8.740    377  407  437  467  497  527
            0  0  0  0     5.900    378  408  438  468  498  528
            0  0  0  1     5.150    379  409  439  469  499  529
            0  0  0  1     2.500    380  410  440  470  500  530
            0  0  0  1     1.500    381  411  441  471  501  531
            1  0  0  0     3.680    382  412  442  472  502  532
            0  1  0  0     3.680    383  413  443  473  503  533
            0  0  1  0     3.680    384  414  444  474  504  534
            1  0  0  0     1.880    385  415  445  475  505  535
            0  1  0  0     1.880    386  416  446  476  506  536
            0  0  1  0     1.880    387  417  447  477  507  537
            1  0  0  0     1.000    388  418  448  478  508  538
            0  1  0  0     1.000    389  419  449  479  509  539
            0  0  1  0     1.000    390  420  450  480  510  540
            2  0  0  0     2.200    391  421  451  481  511  541
            1  1  0  0     2.200    392  422  452  482  512  542
            1  0  1  0     2.200    393  423  453  483  513  543
            0  2  0  0     2.200    394  424  454  484  514  544
            0  1  1  0     2.200    395  425  455  485  515  545
            0  0  2  0     2.200    396  426  456  486  516  546
            3  0  0  0     3.300    397  427  457  487  517  547
            2  1  0  0     3.300    398  428  458  488  518  548
            2  0  1  0     3.300    399  429  459  489  519  549
            1  2  0  0     3.300    400  430  460  490  520  550
            1  1  1  0     3.300    401  431  461  491  521  551
            1  0  2  0     3.300    402  432  462  492  522  552
            0  3  0  0     3.300    403  433  463  493  523  553
            0  2  1  0     3.300    404  434  464  494  524  554
            0  1  2  0     3.300    405  435  465  495  525  555
            0  0  3  0     3.300    406  436  466  496  526  556

 O                                   21   22   23   24   25   26   27   28   29   30   31   32   33   34   35
                                     36   37   38   39   40   41   42   43   44   45
                                  ---------------------------------------------------------------------------
            0  0  0  0     9.800    557  587  617  647  677  707  737  767  797  827  857  887  917  947  977
                                   1007 1037 1067 1097 1127 1157 1187 1217 1247 1277
            0  0  0  0     6.800    558  588  618  648  678  708  738  768  798  828  858  888  918  948  978
                                   1008 1038 1068 1098 1128 1158 1188 1218 1248 1278
            0  0  0  1     7.580    559  589  619  649  679  709  739  769  799  829  859  889  919  949  979
                                   1009 1039 1069 1099 1129 1159 1189 1219 1249 1279
            0  0  0  1     2.880    560  590  620  650  680  710  740  770  800  830  860  890  920  950  980
                                   1010 1040 1070 1100 1130 1160 1190 1220 1250 1280
            0  0  0  1     1.720    561  591  621  651  681  711  741  771  801  831  861  891  921  951  981
                                   1011 1041 1071 1101 1131 1161 1191 1221 1251 1281
            1  0  0  0     4.080    562  592  622  652  682  712  742  772  802  832  862  892  922  952  982
                                   1012 1042 1072 1102 1132 1162 1192 1222 1252 1282
            0  1  0  0     4.080    563  593  623  653  683  713  743  773  803  833  863  893  923  953  983
                                   1013 1043 1073 1103 1133 1163 1193 1223 1253 1283
            0  0  1  0     4.080    564  594  624  654  684  714  744  774  804  834  864  894  924  954  984
                                   1014 1044 1074 1104 1134 1164 1194 1224 1254 1284
            1  0  0  0     2.080    565  595  625  655  685  715  745  775  805  835  865  895  925  955  985
                                   1015 1045 1075 1105 1135 1165 1195 1225 1255 1285
            0  1  0  0     2.080    566  596  626  656  686  716  746  776  806  836  866  896  926  956  986
                                   1016 1046 1076 1106 1136 1166 1196 1226 1256 1286
            0  0  1  0     2.080    567  597  627  657  687  717  747  777  807  837  867  897  927  957  987
                                   1017 1047 1077 1107 1137 1167 1197 1227 1257 1287
            1  0  0  0     1.120    568  598  628  658  688  718  748  778  808  838  868  898  928  958  988
                                   1018 1048 1078 1108 1138 1168 1198 1228 1258 1288
            0  1  0  0     1.120    569  599  629  659  689  719  749  779  809  839  869  899  929  959  989
                                   1019 1049 1079 1109 1139 1169 1199 1229 1259 1289
            0  0  1  0     1.120    570  600  630  660  690  720  750  780  810  840  870  900  930  960  990
                                   1020 1050 1080 1110 1140 1170 1200 1230 1260 1290
            2  0  0  0     2.000    571  601  631  661  691  721  751  781  811  841  871  901  931  961  991
                                   1021 1051 1081 1111 1141 1171 1201 1231 1261 1291
            1  1  0  0     2.000    572  602  632  662  692  722  752  782  812  842  872  902  932  962  992
                                   1022 1052 1082 1112 1142 1172 1202 1232 1262 1292
            1  0  1  0     2.000    573  603  633  663  693  723  753  783  813  843  873  903  933  963  993
                                   1023 1053 1083 1113 1143 1173 1203 1233 1263 1293
            0  2  0  0     2.000    574  604  634  664  694  724  754  784  814  844  874  904  934  964  994
                                   1024 1054 1084 1114 1144 1174 1204 1234 1264 1294
            0  1  1  0     2.000    575  605  635  665  695  725  755  785  815  845  875  905  935  965  995
                                   1025 1055 1085 1115 1145 1175 1205 1235 1265 1295
            0  0  2  0     2.000    576  606  636  666  696  726  756  786  816  846  876  906  936  966  996
                                   1026 1056 1086 1116 1146 1176 1206 1236 1266 1296
            3  0  0  0     3.000    577  607  637  667  697  727  757  787  817  847  877  907  937  967  997
                                   1027 1057 1087 1117 1147 1177 1207 1237 1267 1297
            2  1  0  0     3.000    578  608  638  668  698  728  758  788  818  848  878  908  938  968  998
                                   1028 1058 1088 1118 1148 1178 1208 1238 1268 1298
            2  0  1  0     3.000    579  609  639  669  699  729  759  789  819  849  879  909  939  969  999
                                   1029 1059 1089 1119 1149 1179 1209 1239 1269 1299
            1  2  0  0     3.000    580  610  640  670  700  730  760  790  820  850  880  910  940  970 1000
                                   1030 1060 1090 1120 1150 1180 1210 1240 1270 1300
            1  1  1  0     3.000    581  611  641  671  701  731  761  791  821  851  881  911  941  971 1001
                                   1031 1061 1091 1121 1151 1181 1211 1241 1271 1301
            1  0  2  0     3.000    582  612  642  672  702  732  762  792  822  852  882  912  942  972 1002
                                   1032 1062 1092 1122 1152 1182 1212 1242 1272 1302
            0  3  0  0     3.000    583  613  643  673  703  733  763  793  823  853  883  913  943  973 1003
                                   1033 1063 1093 1123 1153 1183 1213 1243 1273 1303
            0  2  1  0     3.000    584  614  644  674  704  734  764  794  824  854  884  914  944  974 1004
                                   1034 1064 1094 1124 1154 1184 1214 1244 1274 1304
            0  1  2  0     3.000    585  615  645  675  705  735  765  795  825  855  885  915  945  975 1005
                                   1035 1065 1095 1125 1155 1185 1215 1245 1275 1305
            0  0  3  0     3.000    586  616  646  676  706  736  766  796  826  856  886  916  946  976 1006
                                   1036 1066 1096 1126 1156 1186 1216 1246 1276 1306

 Total number of charge fitting functions (nprimf)      3842
 Total number of Cartesian basis functions (naos)       1306
 Total number of Cartesian core functions  (ncos)          0

1
 ***************************************************************************************************



                                              ***********************
                                              *  T E C H N I C A L  *
                                              ***********************
  



 =============================================================
 P A R A L L E L I Z A T I O N  and  V E C T O R I Z A T I O N
 =============================================================
  
 Nr of parallel processes:                               16
 Maximum vector length in NumInt loops:                 128



 =====================
 S C F   U P D A T E S
 =====================
  
 Max. nr. of cycles:                               300
 Convergence criterion:                              0.0000010000
   secondary criterion:                              0.0010000000

 Mix parameter (when DIIS does not apply):           0.2000000000
 Mixed ADIIS+SDIIS will be used                  
    Max number of expansion vectors:                10
    Pure ADIIS when Max([F,P]) is above              0.1000000000
    Pure SDIIS when Max([F,P]) is below              0.0010000000
 Automatic ElectronSmearing (in case of problematic SCF convergence) disabled



 =================
 P R E C I S I O N  ***  (General: NumInt, NeglectFunctionTails, ...)  ***
 =================
  

 NumInt:           Target precision:                 4.0000000000
 -------           Initial precision:                4.0000000000
                   Min. precision (optimization):    4.0000000000

 Neglect Functions:          Basis functions:        0.1000000000E-05
 ------------------          Fit functions:          0.1000000000E-05



 ===========================
 L I N E A R   S C A L I N G
 ===========================
  

 Cut-off radii density fit:                        0.1000000000E-07
 Overlap cut-off criterion AO matrix elements:     0.1000000000E-05
 Cut-offs for Coulomb potential and fitted density:0.1000000000E-07
 Cut-off criterion for Coulomb multipole terms:    0.1000000000E-07
 Progressive Convergence parameter:                 0.000000000    
1
 ***************************************************************************************************



                                            ***************************
                                            *  C O M P U T A T I O N  *
                                            ***************************
  



 ==============================
 Double group spinor symmetries  ***  (Spin-Orbit)  ***
 ==============================
  

 The double group Lowdins are spinors adapted to the irreducible representations
 of the double group. These double group Lowdins are linear combinations of
 products of the single group Lowdins and the spinfunctions. The single group
 Lowdins are  orthonormalized symmetrized fragment orbitals (SFOs).
 The complex coefficients that are used in the linear combinations are also
 known as Clebsch-Gordan coefficients.
 The spin functions (alpha,beta) span irrep e1/2


          A * e 1/2 :      A1/2

  A1/2:1 = A.alpha
  A1/2:1 = A.beta

 The table summarizes which one-electron orbital irreps (single group) couple
 with spin to which spinor irreps (double group).
 The Clebsch-Gordan series for each direct product: orbital irrep times e1/2.
                  A
            -------
  A1/2           X


 dimension (equal to the max. nr. of electrons per spinor) of the double group irreps
 ------------------------------------------------------------------------------------
  A1/2           1

 Number of elements of the density matrix on this node (used, total):     48156    853471



 ===========================================
 Numerical Integration : Fuzzy Cells (Becke)
 ===========================================
  
 Becke grid quality: NORMAL         
  
 Lebedev angular grid order:             min:  11 max:  31
 Nr. of radial points:                   min:  46 max: 144

 Total nr. of points:     337875
 Nr. of blocks:             2640
 Block length:               128
 Nr. of dummy points:         45


 Test of Precision of the Numerical Integration Grid
 ===================================================

 Integral of the Total Core Density:                   0.00000000000000



 ========================
 Density Fitting (zlmFit)
 ========================
  
 ZlmFit Fit Quality: NORMAL         
  
 Max L-expansion:                        min:   6 max:   8
 Nr. of radial interpolation points:     min:  39 max: 132



 ======================
 RI Hartree-Fock Scheme
 ======================
  
 Fit Set Quality     : NORMAL
 Threshold Quality   : NORMAL
 Integration Quality : NORMAL
 Fit Generation Method : AUTO
 Response Quality    : DEFAULT
 Is Range Separated  :  F
 
 RIHartreeFock Dependency: number of modified vectors:          19



 =====
 S C F  ***  ScaSCF  ***
 =====
  
 Initial density matrix is calculated as sum of fragments

 CYCLE    1
 SCF Error: norm([F,P])=    251.513030159795, max([F,P])=     42.458707637026
 orbitals (Q,E):
 ---------------
 A1/2 :361...380     ( 1.00    -0.4164)  ( 1.00    -0.4164)  ( 1.00    -0.4130)  ( 1.00    -0.4130)
                     ( 1.00    -0.4117)  ( 1.00    -0.4117)  ( 1.00    -0.4092)  ( 1.00    -0.4092)
                     ( 1.00    -0.4084)  ( 1.00    -0.4084)  ( 0.00    -0.1625)  ( 0.00    -0.1625)
                     ( 0.00    -0.1611)  ( 0.00    -0.1611)  ( 0.00    -0.1602)  ( 0.00    -0.1602)
                     ( 0.00    -0.1592)  ( 0.00    -0.1592)  ( 0.00    -0.1588)  ( 0.00    -0.1588)

 CYCLE    2
   MIX coefficients:  0.8000  0.2000
 SCF Error: norm([F,P])=      2.497618654381, max([F,P])=      0.159068215938
 orbitals (Q,E):
 ---------------
 A1/2 :361...380     ( 1.00    -0.3799)  ( 1.00    -0.3799)  ( 1.00    -0.3766)  ( 1.00    -0.3766)
                     ( 1.00    -0.3736)  ( 1.00    -0.3736)  ( 1.00    -0.3709)  ( 1.00    -0.3709)
                     ( 1.00    -0.3697)  ( 1.00    -0.3697)  ( 0.00    -0.1978)  ( 0.00    -0.1978)
                     ( 0.00    -0.1973)  ( 0.00    -0.1973)  ( 0.00    -0.1966)  ( 0.00    -0.1966)
                     ( 0.00    -0.1956)  ( 0.00    -0.1956)  ( 0.00    -0.1950)  ( 0.00    -0.1950)

 CYCLE    3
  SDIIS (wt  0.000): -0.8308  1.8308
 A-DIIS (wt  1.000):  0.0000  1.0000
  DIIS coefficients:  0.0000  1.0000
 SCF Error: norm([F,P])=      1.206638542657, max([F,P])=      0.063273407703
 orbitals (Q,E):
 ---------------
 A1/2 :361...380     ( 1.00    -0.3188)  ( 1.00    -0.3188)  ( 1.00    -0.3161)  ( 1.00    -0.3161)
                     ( 1.00    -0.3151)  ( 1.00    -0.3151)  ( 1.00    -0.3128)  ( 1.00    -0.3128)
                     ( 1.00    -0.3091)  ( 1.00    -0.3091)  ( 0.00    -0.3068)  ( 0.00    -0.3068)
                     ( 0.00    -0.3063)  ( 0.00    -0.3063)  ( 0.00    -0.3047)  ( 0.00    -0.3047)
                     ( 0.00    -0.3024)  ( 0.00    -0.3024)  ( 0.00    -0.2969)  ( 0.00    -0.2969)

 CYCLE    4
  SDIIS (wt  0.000): -0.7968  1.7916  0.0051
 A-DIIS (wt  1.000):  0.0000  0.9875  0.0125
  DIIS coefficients:  0.0000  0.9875  0.0125
 SCF Error: norm([F,P])=     24.339586921044, max([F,P])=      2.025578553169
 orbitals (Q,E):
 ---------------
 A1/2 :361...380     ( 1.00    -0.2825)  ( 1.00    -0.2825)  ( 1.00    -0.2816)  ( 1.00    -0.2816)
                     ( 1.00    -0.2764)  ( 1.00    -0.2764)  ( 1.00    -0.2733)  ( 1.00    -0.2733)
                     ( 1.00    -0.2708)  ( 1.00    -0.2708)  ( 0.00    -0.2417)  ( 0.00    -0.2417)
                     ( 0.00    -0.2401)  ( 0.00    -0.2401)  ( 0.00    -0.2394)  ( 0.00    -0.2394)
                     ( 0.00    -0.2388)  ( 0.00    -0.2388)  ( 0.00    -0.2373)  ( 0.00    -0.2373)

 CYCLE    5
  SDIIS (wt  0.000): -0.6630  1.6029 -0.0032  0.0632
 A-DIIS (wt  1.000):  0.0000  0.8680  0.0000  0.1320
  DIIS coefficients:  0.0000  0.8680  0.0000  0.1320
 SCF Error: norm([F,P])=      4.977956213088, max([F,P])=      0.631662347491
 orbitals (Q,E):
 ---------------
 A1/2 :361...380     ( 1.00    -0.2945)  ( 1.00    -0.2945)  ( 1.00    -0.2896)  ( 1.00    -0.2896)
                     ( 1.00    -0.2827)  ( 1.00    -0.2827)  ( 1.00    -0.2811)  ( 1.00    -0.2811)
                     ( 1.00    -0.2780)  ( 1.00    -0.2780)  ( 0.00    -0.1450)  ( 0.00    -0.1450)
                     ( 0.00    -0.1435)  ( 0.00    -0.1435)  ( 0.00    -0.1421)  ( 0.00    -0.1421)
                     ( 0.00    -0.1414)  ( 0.00    -0.1414)  ( 0.00    -0.1398)  ( 0.00    -0.1398)

 CYCLE    6
  SDIIS (wt  0.399): -0.0810  0.6189  0.0011  0.0404  0.4206
 A-DIIS (wt  0.601):  0.0000  0.4188  0.0000  0.0000  0.5812
  DIIS coefficients: -0.0323  0.4986  0.0004  0.0161  0.5172
 SCF Error: norm([F,P])=      1.022139503833, max([F,P])=      0.060519382952
 orbitals (Q,E):
 ---------------
 A1/2 :361...380     ( 1.00    -0.3259)  ( 1.00    -0.3259)  ( 1.00    -0.3248)  ( 1.00    -0.3248)
                     ( 1.00    -0.3215)  ( 1.00    -0.3215)  ( 1.00    -0.3191)  ( 1.00    -0.3191)
                     ( 1.00    -0.3169)  ( 1.00    -0.3169)  ( 0.00    -0.2289)  ( 0.00    -0.2289)
                     ( 0.00    -0.2276)  ( 0.00    -0.2276)  ( 0.00    -0.2263)  ( 0.00    -0.2263)
                     ( 0.00    -0.2208)  ( 0.00    -0.2208)  ( 0.00    -0.2193)  ( 0.00    -0.2193)

 CYCLE    7
  SDIIS (wt  0.399):  0.1615 -0.0524  0.0011 -0.0585  0.4648  0.4835
 A-DIIS (wt  0.601):  0.0000  0.2459  0.0000  0.0000  0.2993  0.4549
  DIIS coefficients:  0.0644  0.1269  0.0004 -0.0233  0.3653  0.4663
 SCF Error: norm([F,P])=      0.825210806482, max([F,P])=      0.089796283815
 orbitals (Q,E):
 ---------------
 A1/2 :361...380     ( 1.00    -0.3290)  ( 1.00    -0.3290)  ( 1.00    -0.3257)  ( 1.00    -0.3257)
                     ( 1.00    -0.3217)  ( 1.00    -0.3217)  ( 1.00    -0.3196)  ( 1.00    -0.3196)
                     ( 1.00    -0.3174)  ( 1.00    -0.3174)  ( 0.00    -0.1331)  ( 0.00    -0.1331)
                     ( 0.00    -0.1321)  ( 0.00    -0.1321)  ( 0.00    -0.1309)  ( 0.00    -0.1309)
                     ( 0.00    -0.1227)  ( 0.00    -0.1227)  ( 0.00    -0.1217)  ( 0.00    -0.1217)

 CYCLE    8
  SDIIS (wt  0.642): -0.0308  0.0585  0.0005 -0.0245  0.0938  0.3698  0.5328
 A-DIIS (wt  0.358):  0.0000  0.0000  0.0000  0.0000  0.0000  0.2803  0.7197
  DIIS coefficients: -0.0198  0.0376  0.0003 -0.0157  0.0602  0.3378  0.5996
 SCF Error: norm([F,P])=      0.392718452470, max([F,P])=      0.036415752128
 orbitals (Q,E):
 ---------------
 A1/2 :361...380     ( 1.00    -0.3299)  ( 1.00    -0.3299)  ( 1.00    -0.3272)  ( 1.00    -0.3272)
                     ( 1.00    -0.3218)  ( 1.00    -0.3218)  ( 1.00    -0.3212)  ( 1.00    -0.3212)
                     ( 1.00    -0.3180)  ( 1.00    -0.3180)  ( 0.00    -0.1835)  ( 0.00    -0.1835)
                     ( 0.00    -0.1830)  ( 0.00    -0.1830)  ( 0.00    -0.1816)  ( 0.00    -0.1816)
                     ( 0.00    -0.1732)  ( 0.00    -0.1732)  ( 0.00    -0.1730)  ( 0.00    -0.1730)

 CYCLE    9
  SDIIS (wt  0.906): -0.0330  0.0418  0.0003 -0.0124  0.0137  0.2016  0.4083  0.3797
 A-DIIS (wt  0.094):  0.0000  0.0000  0.0000  0.0000  0.0000  0.0000  0.0789  0.9211
  DIIS coefficients: -0.0299  0.0379  0.0003 -0.0112  0.0124  0.1827  0.3774  0.4304
 SCF Error: norm([F,P])=      0.097214416164, max([F,P])=      0.010266328213
 orbitals (Q,E):
 ---------------
 A1/2 :361...380     ( 1.00    -0.3295)  ( 1.00    -0.3295)  ( 1.00    -0.3266)  ( 1.00    -0.3266)
                     ( 1.00    -0.3218)  ( 1.00    -0.3218)  ( 1.00    -0.3209)  ( 1.00    -0.3209)
                     ( 1.00    -0.3181)  ( 1.00    -0.3181)  ( 0.00    -0.1746)  ( 0.00    -0.1746)
                     ( 0.00    -0.1735)  ( 0.00    -0.1735)  ( 0.00    -0.1723)  ( 0.00    -0.1723)
                     ( 0.00    -0.1658)  ( 0.00    -0.1658)  ( 0.00    -0.1645)  ( 0.00    -0.1645)

 CYCLE   10
  SDIIS (wt  0.961): -0.0158  0.0160  0.0001 -0.0044 -0.0107  0.0623  0.1735  0.4099  0.3692
 A-DIIS (wt  0.039):  0.0000  0.0000  0.0000  0.0000  0.0000  0.0000  0.0000  0.2612  0.7388
  DIIS coefficients: -0.0152  0.0154  0.0001 -0.0042 -0.0103  0.0598  0.1667  0.4040  0.3837
 SCF Error: norm([F,P])=      0.049515841982, max([F,P])=      0.004865591111
 orbitals (Q,E):
 ---------------
 A1/2 :361...380     ( 1.00    -0.3286)  ( 1.00    -0.3286)  ( 1.00    -0.3262)  ( 1.00    -0.3262)
                     ( 1.00    -0.3212)  ( 1.00    -0.3212)  ( 1.00    -0.3206)  ( 1.00    -0.3206)
                     ( 1.00    -0.3173)  ( 1.00    -0.3173)  ( 0.00    -0.1728)  ( 0.00    -0.1728)
                     ( 0.00    -0.1710)  ( 0.00    -0.1710)  ( 0.00    -0.1699)  ( 0.00    -0.1699)
                     ( 0.00    -0.1668)  ( 0.00    -0.1668)  ( 0.00    -0.1660)  ( 0.00    -0.1660)

 CYCLE   11
  SDIIS (wt  0.999): -0.0020 -0.0003  0.0000 -0.0004 -0.0064  0.0039  0.0263  0.1641  0.2405  0.5743
 A-DIIS (wt  0.001):  0.0000  0.0000  0.0000  0.0000  0.0000  0.0000  0.0000  0.0000  0.0104  0.9896
  DIIS coefficients: -0.0020 -0.0003  0.0000 -0.0004 -0.0063  0.0039  0.0262  0.1640  0.2403  0.5746
 SCF Error: norm([F,P])=      0.010807356259, max([F,P])=      0.001059811882
 orbitals (Q,E):
 ---------------
 A1/2 :361...380     ( 1.00    -0.3290)  ( 1.00    -0.3290)  ( 1.00    -0.3265)  ( 1.00    -0.3265)
                     ( 1.00    -0.3214)  ( 1.00    -0.3214)  ( 1.00    -0.3207)  ( 1.00    -0.3207)
                     ( 1.00    -0.3176)  ( 1.00    -0.3176)  ( 0.00    -0.1730)  ( 0.00    -0.1730)
                     ( 0.00    -0.1709)  ( 0.00    -0.1709)  ( 0.00    -0.1696)  ( 0.00    -0.1696)
                     ( 0.00    -0.1677)  ( 0.00    -0.1677)  ( 0.00    -0.1670)  ( 0.00    -0.1670)

 CYCLE   12
  SDIIS (wt  1.000): -0.0013  0.0000  0.0001 -0.0028 -0.0026  0.0003  0.0663  0.1259  0.3925  0.4216
  DIIS coefficients: -0.0013  0.0000  0.0001 -0.0028 -0.0026  0.0003  0.0663  0.1259  0.3925  0.4216
 SCF Error: norm([F,P])=      0.004455922497, max([F,P])=      0.000338239476
 orbitals (Q,E):
 ---------------
 A1/2 :361...380     ( 1.00    -0.3290)  ( 1.00    -0.3290)  ( 1.00    -0.3266)  ( 1.00    -0.3266)
                     ( 1.00    -0.3215)  ( 1.00    -0.3215)  ( 1.00    -0.3208)  ( 1.00    -0.3208)
                     ( 1.00    -0.3177)  ( 1.00    -0.3177)  ( 0.00    -0.1734)  ( 0.00    -0.1734)
                     ( 0.00    -0.1713)  ( 0.00    -0.1713)  ( 0.00    -0.1700)  ( 0.00    -0.1700)
                     ( 0.00    -0.1681)  ( 0.00    -0.1681)  ( 0.00    -0.1674)  ( 0.00    -0.1674)

 CYCLE   13
  SDIIS (wt  1.000): -0.0000  0.0000  0.0000 -0.0001 -0.0021  0.0083  0.0256  0.0875  0.2218  0.6590
  DIIS coefficients: -0.0000  0.0000  0.0000 -0.0001 -0.0021  0.0083  0.0256  0.0875  0.2218  0.6590
 SCF Error: norm([F,P])=      0.001199168825, max([F,P])=      0.000099567508
 orbitals (Q,E):
 ---------------
 A1/2 :361...380     ( 1.00    -0.3290)  ( 1.00    -0.3290)  ( 1.00    -0.3265)  ( 1.00    -0.3265)
                     ( 1.00    -0.3215)  ( 1.00    -0.3215)  ( 1.00    -0.3208)  ( 1.00    -0.3208)
                     ( 1.00    -0.3176)  ( 1.00    -0.3176)  ( 0.00    -0.1734)  ( 0.00    -0.1734)
                     ( 0.00    -0.1712)  ( 0.00    -0.1712)  ( 0.00    -0.1699)  ( 0.00    -0.1699)
                     ( 0.00    -0.1681)  ( 0.00    -0.1681)  ( 0.00    -0.1673)  ( 0.00    -0.1673)

 CYCLE   14
  SDIIS (wt  1.000):  0.0000  0.0000 -0.0002 -0.0016  0.0005  0.0065  0.0264  0.1056  0.3850  0.4778
  DIIS coefficients:  0.0000  0.0000 -0.0002 -0.0016  0.0005  0.0065  0.0264  0.1056  0.3850  0.4778
 SCF Error: norm([F,P])=      0.000444246151, max([F,P])=      0.000029667593
 orbitals (Q,E):
 ---------------
 A1/2 :361...380     ( 1.00    -0.3290)  ( 1.00    -0.3290)  ( 1.00    -0.3265)  ( 1.00    -0.3265)
                     ( 1.00    -0.3214)  ( 1.00    -0.3214)  ( 1.00    -0.3208)  ( 1.00    -0.3208)
                     ( 1.00    -0.3176)  ( 1.00    -0.3176)  ( 0.00    -0.1734)  ( 0.00    -0.1734)
                     ( 0.00    -0.1712)  ( 0.00    -0.1712)  ( 0.00    -0.1699)  ( 0.00    -0.1699)
                     ( 0.00    -0.1681)  ( 0.00    -0.1681)  ( 0.00    -0.1673)  ( 0.00    -0.1673)

 CYCLE   15
  SDIIS (wt  1.000):  0.0000 -0.0000 -0.0006 -0.0004 -0.0000  0.0030  0.0333  0.1407  0.2852  0.5388
  DIIS coefficients:  0.0000 -0.0000 -0.0006 -0.0004 -0.0000  0.0030  0.0333  0.1407  0.2852  0.5388
 SCF Error: norm([F,P])=      0.000183464151, max([F,P])=      0.000016963587
 orbitals (Q,E):
 ---------------
 A1/2 :361...380     ( 1.00    -0.3290)  ( 1.00    -0.3290)  ( 1.00    -0.3265)  ( 1.00    -0.3265)
                     ( 1.00    -0.3214)  ( 1.00    -0.3214)  ( 1.00    -0.3208)  ( 1.00    -0.3208)
                     ( 1.00    -0.3176)  ( 1.00    -0.3176)  ( 0.00    -0.1734)  ( 0.00    -0.1734)
                     ( 0.00    -0.1712)  ( 0.00    -0.1712)  ( 0.00    -0.1699)  ( 0.00    -0.1699)
                     ( 0.00    -0.1681)  ( 0.00    -0.1681)  ( 0.00    -0.1673)  ( 0.00    -0.1673)

 CYCLE   16
  SDIIS (wt  1.000):  0.0000  0.0000 -0.0006 -0.0028 -0.0075 -0.0117 -0.0261  0.0367  0.3386  0.6734
  DIIS coefficients:  0.0000  0.0000 -0.0006 -0.0028 -0.0075 -0.0117 -0.0261  0.0367  0.3386  0.6734
 SCF Error: norm([F,P])=      0.000093121729, max([F,P])=      0.000010076614
 orbitals (Q,E):
 ---------------
 A1/2 :361...380     ( 1.00    -0.3290)  ( 1.00    -0.3290)  ( 1.00    -0.3265)  ( 1.00    -0.3265)
                     ( 1.00    -0.3214)  ( 1.00    -0.3214)  ( 1.00    -0.3208)  ( 1.00    -0.3208)
                     ( 1.00    -0.3176)  ( 1.00    -0.3176)  ( 0.00    -0.1734)  ( 0.00    -0.1734)
                     ( 0.00    -0.1712)  ( 0.00    -0.1712)  ( 0.00    -0.1699)  ( 0.00    -0.1699)
                     ( 0.00    -0.1681)  ( 0.00    -0.1681)  ( 0.00    -0.1673)  ( 0.00    -0.1673)

 CYCLE   17
  SDIIS (wt  1.000):  0.0000 -0.0004 -0.0017 -0.0048 -0.0117 -0.0360 -0.0235  0.1207  0.4033  0.5541
  DIIS coefficients:  0.0000 -0.0004 -0.0017 -0.0048 -0.0117 -0.0360 -0.0235  0.1207  0.4033  0.5541
 SCF Error: norm([F,P])=      0.000033951503, max([F,P])=      0.000003207170
 orbitals (Q,E):
 ---------------
 A1/2 :361...380     ( 1.00    -0.3290)  ( 1.00    -0.3290)  ( 1.00    -0.3265)  ( 1.00    -0.3265)
                     ( 1.00    -0.3214)  ( 1.00    -0.3214)  ( 1.00    -0.3208)  ( 1.00    -0.3208)
                     ( 1.00    -0.3176)  ( 1.00    -0.3176)  ( 0.00    -0.1734)  ( 0.00    -0.1734)
                     ( 0.00    -0.1712)  ( 0.00    -0.1712)  ( 0.00    -0.1699)  ( 0.00    -0.1699)
                     ( 0.00    -0.1681)  ( 0.00    -0.1681)  ( 0.00    -0.1673)  ( 0.00    -0.1673)

 CYCLE   18
  SDIIS (wt  1.000): -0.0001 -0.0003 -0.0007 -0.0021 -0.0085 -0.0081  0.0293  0.1331  0.2854  0.5720
  DIIS coefficients: -0.0001 -0.0003 -0.0007 -0.0021 -0.0085 -0.0081  0.0293  0.1331  0.2854  0.5720
 SCF Error: norm([F,P])=      0.000016773139, max([F,P])=      0.000001843404
 orbitals (Q,E):
 ---------------
 A1/2 :361...380     ( 1.00    -0.3290)  ( 1.00    -0.3290)  ( 1.00    -0.3265)  ( 1.00    -0.3265)
                     ( 1.00    -0.3214)  ( 1.00    -0.3214)  ( 1.00    -0.3208)  ( 1.00    -0.3208)
                     ( 1.00    -0.3176)  ( 1.00    -0.3176)  ( 0.00    -0.1734)  ( 0.00    -0.1734)
                     ( 0.00    -0.1712)  ( 0.00    -0.1712)  ( 0.00    -0.1699)  ( 0.00    -0.1699)
                     ( 0.00    -0.1681)  ( 0.00    -0.1681)  ( 0.00    -0.1673)  ( 0.00    -0.1673)

 CYCLE   19
  SDIIS (wt  1.000):  0.0002  0.0006  0.0009  0.0010 -0.0041 -0.0214 -0.0202  0.0667  0.3990  0.5773
  DIIS coefficients:  0.0002  0.0006  0.0009  0.0010 -0.0041 -0.0214 -0.0202  0.0667  0.3990  0.5773
 SCF Error: norm([F,P])=      0.000007674495, max([F,P])=      0.000000738789
 orbitals (Q,E):
 ---------------
 A1/2 :361...380     ( 1.00    -0.3290)  ( 1.00    -0.3290)  ( 1.00    -0.3265)  ( 1.00    -0.3265)
                     ( 1.00    -0.3214)  ( 1.00    -0.3214)  ( 1.00    -0.3208)  ( 1.00    -0.3208)
                     ( 1.00    -0.3176)  ( 1.00    -0.3176)  ( 0.00    -0.1734)  ( 0.00    -0.1734)
                     ( 0.00    -0.1712)  ( 0.00    -0.1712)  ( 0.00    -0.1699)  ( 0.00    -0.1699)
                     ( 0.00    -0.1681)  ( 0.00    -0.1681)  ( 0.00    -0.1673)  ( 0.00    -0.1673)

 SCF CONVERGED

 CYCLE   20
1
 ***************************************************************************************************



                                                *******************
                                                *  R E S U L T S  *
                                                *******************
  
  
 Hartree-Fock exchange energy:   -666.222757995398     
 *** Using FIT density in Focky
  SDIIS (wt  1.000):  0.0000 -0.0002 -0.0010 -0.0018  0.0008  0.0126  0.0288  0.0371  0.2184  0.7054
  DIIS coefficients:  0.0000 -0.0002 -0.0010 -0.0018  0.0008  0.0126  0.0288  0.0371  0.2184  0.7054
 SCF Error: norm([F,P])=      0.000002925075, max([F,P])=      0.000000243486

 Orbital Energies, per Irrep and Spin:
 ======================================
                        Occup              E (au)              E (eV)       Diff (eV) with prev. cycle
                        -----      --------------------        ------       --------------------------
 A1/2
             361        1.000     -0.32899638478510E+00        -8.952              -2.62E-06
             362        1.000     -0.32899638478360E+00        -8.952              -2.62E-06
             363        1.000     -0.32651694055647E+00        -8.885              -2.36E-06
             364        1.000     -0.32651694055524E+00        -8.885              -2.36E-06
             365        1.000     -0.32144905299258E+00        -8.747              -3.02E-06
             366        1.000     -0.32144905298503E+00        -8.747              -3.02E-06
             367        1.000     -0.32080341926446E+00        -8.730              -2.21E-06
             368        1.000     -0.32080341925968E+00        -8.730              -2.21E-06
             369        1.000     -0.31762344873452E+00        -8.643              -3.69E-06
             370        1.000     -0.31762344873157E+00        -8.643              -3.69E-06
             371        0.000     -0.17339829208776E+00        -4.718
             372        0.000     -0.17339829208013E+00        -4.718
             373        0.000     -0.17122740791674E+00        -4.659
             374        0.000     -0.17122740790613E+00        -4.659
             375        0.000     -0.16994639826154E+00        -4.624
             376        0.000     -0.16994639824303E+00        -4.624
             377        0.000     -0.16808001762868E+00        -4.574
             378        0.000     -0.16808001761959E+00        -4.574
             379        0.000     -0.16733000481922E+00        -4.553
             380        0.000     -0.16733000480737E+00        -4.553
  
 HOMO :      370 A1/2             -0.31762344873157E+00
 LUMO :      371 A1/2             -0.17339829208776E+00
  


 All Electron Calculation, thus no Orbital Energies of the Core Orbitals are calculated


 Fit test: (difference of exact and fit density, squared integrated, result summed over spins)
         Sum-of-Fragments:                             0.00000003866737
         Orthogonalized Fragments:                     0.00142701557987
         SCF:                                          0.00158942066296



 ==========================
 Electron Density at Nuclei
 ==========================
  
 The electron density is calculated at points on a small sphere around the center of a nucleus.
 The printed electron density is the average electron density on these points.
 The radius of the sphere is the printed approximate finite nuclear radius.
 Note: density is calculated in the Dirac picture

         Atom        Nuclear Radius (Angstrom)             Electron Density (a.u.)
         ----        -------------------------             -----------------------
     1)   Ce                0.0000633998                           280670.81031
     2)   Ce                0.0000633998                           280670.07269
     3)   H                 0.0000181514                                0.44236
     4)   H                 0.0000181514                                0.45919
     5)   H                 0.0000181514                                0.46422
     6)   H                 0.0000181514                                0.45972
     7)   H                 0.0000181514                                0.45873
     8)   H                 0.0000181514                                0.46066
     9)   H                 0.0000181514                                0.46481
    10)   H                 0.0000181514                                0.46289
    11)   H                 0.0000181514                                0.46191
    12)   H                 0.0000181514                                0.46170
    13)   H                 0.0000181514                                0.46194
    14)   H                 0.0000181514                                0.46207
    15)   N                 0.0000333706                              205.30436
    16)   N                 0.0000333706                              205.30707
    17)   N                 0.0000333706                              205.31178
    18)   N                 0.0000333706                              205.30895
    19)   N                 0.0000333706                              205.29880
    20)   N                 0.0000333706                              205.29994
    21)   O                 0.0000345546                              312.89973
    22)   O                 0.0000345546                              312.97099
    23)   O                 0.0000345546                              312.96736
    24)   O                 0.0000345546                              312.87493
    25)   O                 0.0000345546                              312.88929
    26)   O                 0.0000345546                              313.03767
    27)   O                 0.0000345546                              313.03981
    28)   O                 0.0000345546                              312.28460
    29)   O                 0.0000345546                              312.27101
    30)   O                 0.0000345546                              312.98101
    31)   O                 0.0000345546                              312.97657
    32)   O                 0.0000345546                              312.95984
    33)   O                 0.0000345546                              312.89278
    34)   O                 0.0000345546                              312.98865
    35)   O                 0.0000345546                              313.02319
    36)   O                 0.0000345546                              312.33535
    37)   O                 0.0000345546                              312.33121
    38)   O                 0.0000345546                              312.91795
    39)   O                 0.0000345546                              312.91282
    40)   O                 0.0000345546                              312.92578
    41)   O                 0.0000345546                              312.91268
    42)   O                 0.0000345546                              313.04067
    43)   O                 0.0000345546                              313.04855
    44)   O                 0.0000345546                              312.30110
    45)   O                 0.0000345546                              312.29557



 =======================================
 M U L L I K E N   P O P U L A T I O N S
 =======================================
  
 The survey below gives for each atom:
 a) the total charge (Z minus electrons)
 b) the net spin polarization (nr of electrons spin-A minus spin-B)
 c) for each spin the atomic electron valence density (integrated) per L-value.

 Atom              Charge    Spin density          S         P         D         F
 ----              ------    ------------       ------    ------    ------    ------
 1 Ce              2.2355                       9.9873   23.9184   21.0665    0.7924
 2 Ce              2.2342                      10.0002   23.9099   21.0587    0.7970
 3 H               0.2836                       0.5641    0.1392    0.0130    0.0000
 4 H               0.2543                       0.6238    0.1094    0.0126    0.0000
 5 H               0.2069                       0.6656    0.1150    0.0125    0.0000
 6 H               0.2450                       0.6309    0.1114    0.0126    0.0000
 7 H               0.2432                       0.6244    0.1195    0.0130    0.0000
 8 H               0.2326                       0.6370    0.1174    0.0129    0.0000
 9 H               0.2266                       0.6494    0.1116    0.0123    0.0000
 10 H              0.2311                       0.6438    0.1125    0.0126    0.0000
 11 H              0.2540                       0.6268    0.1070    0.0123    0.0000
 12 H              0.2526                       0.6287    0.1065    0.0122    0.0000
 13 H              0.2552                       0.6268    0.1058    0.0122    0.0000
 14 H              0.2527                       0.6290    0.1061    0.0122    0.0000
 15 N              0.9903                       3.0129    2.6818    0.2957    0.0193
 16 N              0.9813                       3.0149    2.6889    0.2956    0.0193
 17 N              0.9365                       3.0230    2.7240    0.2973    0.0193
 18 N              0.9655                       3.0195    2.7002    0.2956    0.0193
 19 N              0.9796                       3.0157    2.6890    0.2964    0.0193
 20 N              0.9914                       3.0126    2.6800    0.2966    0.0193
 21 O             -0.8422                       3.8949    4.9182    0.0240    0.0051
 22 O             -0.5601                       3.8679    4.6156    0.0681    0.0085
 23 O             -0.5683                       3.8713    4.6209    0.0678    0.0083
 24 O             -0.6193                       3.8575    4.6880    0.0656    0.0082
 25 O             -0.6069                       3.8586    4.6742    0.0658    0.0083
 26 O             -0.4254                       3.8616    4.4822    0.0720    0.0096
 27 O             -0.4239                       3.8618    4.4806    0.0720    0.0096
 28 O             -0.4635                       3.7056    4.7230    0.0318    0.0031
 29 O             -0.4817                       3.7179    4.7282    0.0322    0.0034
 30 O             -0.5536                       3.8676    4.6097    0.0680    0.0083
 31 O             -0.5530                       3.8666    4.6096    0.0683    0.0084
 32 O             -0.5616                       3.8682    4.6172    0.0679    0.0083
 33 O             -0.6279                       3.8705    4.6825    0.0669    0.0080
 34 O             -0.4569                       3.8570    4.5196    0.0709    0.0094
 35 O             -0.4356                       3.8595    4.4946    0.0719    0.0095
 36 O             -0.4583                       3.7295    4.6917    0.0337    0.0033
 37 O             -0.4464                       3.7297    4.6800    0.0333    0.0034
 38 O             -0.5845                       3.8627    4.6468    0.0666    0.0083
 39 O             -0.5934                       3.8644    4.6545    0.0664    0.0082
 40 O             -0.5808                       3.8621    4.6435    0.0669    0.0084
 41 O             -0.5770                       3.8596    4.6419    0.0670    0.0086
 42 O             -0.4227                       3.8607    4.4805    0.0719    0.0096
 43 O             -0.4173                       3.8616    4.4738    0.0722    0.0096
 44 O             -0.4967                       3.7274    4.7328    0.0331    0.0034
 45 O             -0.4955                       3.7278    4.7318    0.0326    0.0034

 Populations of individual BAS functions
 ----------------------------------------
 1 Ce           0.0189  0.2845  1.6192 -0.0050  2.0634  1.1725  0.5411  1.1516  1.1857  1.3977
                0.5788  0.0635 -0.0827 -0.0020  0.0105  0.0105  0.0105  0.3565  0.3565  0.3565
                1.6165  1.6165  1.6166  1.4412  1.4410  1.4412  0.5072  0.5073  0.5072  1.3728
                1.3725  1.3718  0.7693  0.7693  0.7707  1.4801  1.4749  1.4807  0.4765  0.4764
                0.4270  0.5516  0.8271  0.8272  0.5515  0.8271  0.5517  0.7889  1.1834  1.1833
                0.7888  1.1834  0.7887  0.7981  1.1962  1.1960  0.7982  1.1952  0.7991  0.5356
                0.8033  0.8038  0.5351  0.8041  0.5362  0.0733  0.0804  0.0949  0.0671  0.0731
                0.1112  0.1111  0.1332  0.1414  0.1050  0.1407  0.0861 -0.0039 -0.0199 -0.0444
               -0.0165 -0.0804 -0.0395  0.0077  0.0139  0.0108  0.0105  0.0052  0.0182  0.0070
                0.0083  0.0131  0.0120  0.0120  0.0331  0.0408  0.0295  0.0130  0.0481  0.0149
                0.0425  0.0362 -0.0030  0.0325  0.0496  0.0426  0.0400  0.0330  0.0640  0.0327
                0.0337  0.0616  0.0289  0.0025 -0.0580 -0.0638
 2 Ce           0.0189  0.2845  1.6192 -0.0049  2.0631  1.1634  0.5575  1.1442  1.1861  1.3964
                0.5819  0.0624 -0.0702 -0.0024  0.0105  0.0105  0.0105  0.3565  0.3565  0.3565
                1.6165  1.6165  1.6166  1.4412  1.4410  1.4413  0.5072  0.5074  0.5072  1.3726
                1.3723  1.3716  0.7695  0.7692  0.7707  1.4798  1.4736  1.4795  0.4743  0.4763
                0.4307  0.5515  0.8272  0.8273  0.5515  0.8271  0.5517  0.7888  1.1834  1.1833
                0.7889  1.1834  0.7888  0.7976  1.1963  1.1964  0.7979  1.1952  0.7986  0.5357
                0.8038  0.8039  0.5350  0.8040  0.5363  0.0626  0.0913  0.1075  0.0589  0.0755
                0.1040  0.1026  0.1449  0.1471  0.0964  0.1404  0.0885 -0.0090 -0.0212 -0.0462
               -0.0301 -0.0784 -0.0297  0.0041  0.0215  0.0098  0.0037  0.0081  0.0200  0.0078
                0.0091  0.0122  0.0115  0.0117  0.0454  0.0335  0.0104  0.0202  0.0484  0.0234
                0.0443  0.0331 -0.0001  0.0187  0.0732  0.0434  0.0235  0.0424  0.0674  0.0322
                0.0343  0.0562  0.0277 -0.0089 -0.0672 -0.0501
 3 H           -0.2423  0.4709  0.3356  0.0305  0.0420  0.0667 -0.0042  0.0006  0.0034 -0.0054
                0.0043  0.0143
 4 H            0.0026  0.2531  0.3681  0.0259  0.0430  0.0404  0.0086  0.0033  0.0031 -0.0011
                0.0013 -0.0027
 5 H            0.0270  0.2777  0.3609  0.0417  0.0441  0.0292  0.0097  0.0031  0.0027  0.0019
                0.0013 -0.0062
 6 H            0.0039  0.2608  0.3662  0.0258  0.0433  0.0423  0.0068  0.0032  0.0026 -0.0032
                0.0017  0.0015
 7 H           -0.0147  0.2765  0.3625  0.0416  0.0367  0.0412 -0.0064  0.0017  0.0030  0.0028
                0.0026  0.0093
 8 H           -0.0003  0.2761  0.3612  0.0481  0.0294  0.0399 -0.0063  0.0015  0.0035  0.0006
                0.0027  0.0109
 9 H            0.0111  0.2743  0.3640  0.0448  0.0297  0.0372  0.0009  0.0024  0.0016  0.0080
                0.0031 -0.0035
 10 H           0.0105  0.2687  0.3646  0.0482  0.0281  0.0363 -0.0051  0.0042  0.0005  0.0132
                0.0042 -0.0044
 11 H          -0.0040  0.2624  0.3683  0.0287  0.0348  0.0435  0.0088  0.0031  0.0028 -0.0038
                0.0014  0.0000
 12 H          -0.0018  0.2628  0.3676  0.0318  0.0331  0.0415  0.0079  0.0028  0.0023 -0.0044
                0.0016  0.0019
 13 H           0.0097  0.2453  0.3717  0.0239  0.0405  0.0415  0.0025  0.0024  0.0018  0.0086
                0.0029 -0.0061
 14 H           0.0113  0.2465  0.3711  0.0265  0.0404  0.0392  0.0000  0.0026  0.0012  0.0106
                0.0032 -0.0055
 15 N           0.5344  1.4628 -0.0672  1.0463  0.0366  0.1727  0.1471  0.1655  0.7895  0.8506
                0.8166 -0.0980 -0.0050 -0.1573  0.0610  0.0484  0.0914 -0.0102  0.0493  0.0558
                0.0085  0.0071  0.0055 -0.0065  0.0023  0.0059 -0.0078 -0.0061  0.0050  0.0056
 16 N           0.5345  1.4627 -0.0672  1.0460  0.0388  0.1673  0.1515  0.1666  0.8015  0.8383
                0.8135 -0.0791 -0.0208 -0.1499  0.0533  0.0388  0.0804  0.0077  0.0566  0.0589
                0.0038  0.0060  0.0024 -0.0023  0.0019  0.0067 -0.0065 -0.0043  0.0056  0.0059
 17 N           0.5344  1.4626 -0.0658  1.0399  0.0519  0.1645  0.1751  0.1480  0.8139  0.7857
                0.8364 -0.1323 -0.0893  0.0220  0.0527  0.0933  0.0445  0.0625  0.0544 -0.0100
                0.0046  0.0039  0.0045  0.0078  0.0023 -0.0056  0.0092  0.0075 -0.0071 -0.0078
 18 N           0.5345  1.4626 -0.0666  1.0434  0.0455  0.1632  0.1725  0.1509  0.8154  0.7936
                0.8357 -0.1279 -0.0895 -0.0138  0.0531  0.0790  0.0434  0.0614  0.0538  0.0047
                0.0031  0.0050  0.0043  0.0045  0.0026 -0.0032  0.0076  0.0068 -0.0045 -0.0069
 19 N           0.5342  1.4631 -0.0673  1.0455  0.0402  0.1773  0.1575  0.1509  0.7801  0.8287
                0.8431 -0.0944 -0.1067 -0.0476  0.0640  0.0852  0.0695  0.0369  0.0302  0.0106
                0.0105  0.0090  0.0083 -0.0004  0.0021 -0.0049 -0.0011  0.0031 -0.0009 -0.0063
 20 N           0.5345  1.4628 -0.0675  1.0466  0.0362  0.1746  0.1609  0.1499  0.7856  0.8238
                0.8476 -0.0862 -0.1437 -0.0323  0.0605  0.0890  0.0541  0.0471  0.0428  0.0031
                0.0077  0.0083  0.0074  0.0017  0.0025 -0.0048  0.0029  0.0040 -0.0034 -0.0071
 21 O           0.6754  1.2733  0.0247  0.9941  0.9275  0.2680  0.2680  0.2647  0.8619  0.8407
                0.8246  0.5484  0.5801  0.4619 -0.0114  0.0009  0.0051 -0.0108  0.0030  0.0373
               -0.0092 -0.0030 -0.0083 -0.0033  0.0002  0.0139 -0.0097 -0.0086  0.0141  0.0189
 22 O           0.6767  1.2759  0.0193  1.0172  0.8788  0.2999  0.2791  0.2162  0.9515  0.8968
                0.7324  0.4991  0.4702  0.2702  0.0046  0.0021  0.0152 -0.0054  0.0190  0.0326
               -0.0048 -0.0010 -0.0076 -0.0042  0.0004  0.0114 -0.0099 -0.0094  0.0135  0.0202
 23 O           0.6744  1.2794  0.0180  1.0166  0.8829  0.3000  0.2851  0.2091  0.9537  0.9091
                0.7185  0.5020  0.4901  0.2533  0.0020  0.0026  0.0143 -0.0032  0.0175  0.0347
               -0.0062 -0.0016 -0.0086 -0.0030  0.0002  0.0114 -0.0088 -0.0090  0.0130  0.0210
 24 O           0.6754  1.2777  0.0188  1.0111  0.8744  0.2436  0.2788  0.2787  0.7937  0.8825
                0.8909  0.3764  0.4970  0.4464  0.0184  0.0106  0.0239 -0.0033  0.0106  0.0053
                0.0065  0.0066  0.0076 -0.0061  0.0015  0.0023 -0.0086 -0.0047  0.0032 -0.0000
 25 O           0.6753  1.2781  0.0186  1.0121  0.8746  0.2411  0.2673  0.2918  0.7892  0.8542
                0.9271  0.3715  0.4571  0.4747  0.0175  0.0136  0.0188  0.0024  0.0107  0.0028
                0.0064  0.0057  0.0065 -0.0029  0.0016 -0.0006 -0.0047 -0.0014  0.0005 -0.0028
 26 O           0.6681  1.2931  0.0087  1.0349  0.8568  0.2297  0.2454  0.3135  0.7879  0.8313
[...]
     451        1.8600         0.000       
     450        1.7755         0.000       
     449        1.7755         0.000       
     448        1.5153         0.000       
     447        1.5153         0.000       
     446        1.4697         0.000       
     445        1.4697         0.000       
     444        1.3778         0.000       
     443        1.3778         0.000       
     442        1.3351         0.000       
     441        1.3351         0.000       
     440        1.1549         0.000       
     439        1.1549         0.000       
     438        1.0643         0.000       
     437        1.0643         0.000       
     436        0.9828         0.000       
     435        0.9828         0.000       
     434        0.9637         0.000       
     433        0.9637         0.000       
     432        0.8013         0.000       
     431        0.8013         0.000       
     430        0.6807         0.000       
     429        0.6807         0.000       
     428        0.5478         0.000       
     427        0.5478         0.000       
     426        0.3615         0.000       
     425        0.3615         0.000       
     424        0.2328         0.000       
     423        0.2328         0.000       
     422       -0.0604         0.000       
     421       -0.0604         0.000       
     420       -0.2309         0.000       
     419       -0.2309         0.000       
     418       -0.4380         0.000       
     417       -0.4380         0.000       
     416       -0.5530         0.000       
     415       -0.5530         0.000       
     414       -1.0729         0.000       
     413       -1.0729         0.000       
     412       -1.2469         0.000       
     411       -1.2469         0.000       
     410       -1.6405         0.000       
     409       -1.6405         0.000       
     408       -1.6776         0.000       
     407       -1.6776         0.000       
     406       -1.7236         0.000       
     405       -1.7236         0.000       
     404       -1.8125         0.000       
     403       -1.8125         0.000       
     402       -1.9127         0.000       
     401       -1.9127         0.000       
     400       -2.0455         0.000       
     399       -2.0455         0.000       
     398       -4.0138         0.000       
     397       -4.0138         0.000       
     396       -4.0693         0.000       
     395       -4.0693         0.000       
     394       -4.2262         0.000       
     393       -4.2262         0.000       
     392       -4.2691         0.000       
     391       -4.2691         0.000       
     390       -4.2951         0.000       
     389       -4.2951         0.000       
     388       -4.3315         0.000       
     387       -4.3315         0.000       
     386       -4.3570         0.000       
     385       -4.3570         0.000       
     384       -4.3813         0.000       
     383       -4.3813         0.000       
     382       -4.4227         0.000       
     381       -4.4227         0.000       
     380       -4.5533         0.000       
     379       -4.5533         0.000       
     378       -4.5737         0.000       
     377       -4.5737         0.000       
     376       -4.6245         0.000       
     375       -4.6245         0.000       
     374       -4.6593         0.000       
     373       -4.6593         0.000       
     372       -4.7184         0.000       
     371       -4.7184         0.000 < LUMO
     370       -8.6430         1.000 < HOMO
     369       -8.6430         1.000       
     368       -8.7295         1.000       
     367       -8.7295         1.000       
     366       -8.7471         1.000       
     365       -8.7471         1.000       
     364       -8.8850         1.000       
     363       -8.8850         1.000       
     362       -8.9524         1.000       
     361       -8.9524         1.000       
     360       -9.0594         1.000       
     359       -9.0594         1.000       
     358       -9.5396         1.000       
     357       -9.5396         1.000       
     356       -9.6168         1.000       
     355       -9.6168         1.000       
     354       -9.6772         1.000       
     353       -9.6772         1.000       
     352       -9.7226         1.000       
     351       -9.7226         1.000       
     350       -9.7840         1.000       
     349       -9.7840         1.000       
     348       -9.7920         1.000       
     347       -9.7920         1.000       
     346       -9.8739         1.000       
     345       -9.8739         1.000       
     344       -9.8851         1.000       
     343       -9.8851         1.000       
     342       -9.9172         1.000       
     341       -9.9172         1.000       
     340      -10.0585         1.000       
     339      -10.0585         1.000       
     338      -10.0906         1.000       
     337      -10.0906         1.000       
     336      -10.1071         1.000       
     335      -10.1071         1.000       
     334      -10.1314         1.000       
     333      -10.1314         1.000       
     332      -10.1987         1.000       
     331      -10.1987         1.000       
     330      -10.2241         1.000       
     329      -10.2241         1.000       
     328      -10.2704         1.000       
     327      -10.2704         1.000       
     326      -10.3179         1.000       
     325      -10.3179         1.000       
     324      -10.4116         1.000       
     323      -10.4116         1.000       
     322      -10.4717         1.000       
     321      -10.4717         1.000       
     320      -10.6026         1.000       
     319      -10.6026         1.000       
     318      -10.6755         1.000       
     317      -10.6755         1.000       
     316      -10.7826         1.000       
     315      -10.7826         1.000       
     314      -10.8819         1.000       
     313      -10.8819         1.000       
     312      -11.0425         1.000       
     311      -11.0425         1.000       
     310      -11.3459         1.000       
     309      -11.3459         1.000       
     308      -11.4044         1.000       
     307      -11.4044         1.000       
     306      -11.5223         1.000       
     305      -11.5223         1.000       
     304      -11.6136         1.000       
     303      -11.6136         1.000       
     302      -11.6608         1.000       
     301      -11.6608         1.000       
     300      -11.6961         1.000       
     299      -11.6961         1.000       
     298      -11.8957         1.000       
     297      -11.8957         1.000       
     296      -12.0859         1.000       
     295      -12.0859         1.000       
     294      -12.2151         1.000       
     293      -12.2151         1.000       
     292      -13.5797         1.000       
     291      -13.5797         1.000       
     290      -13.7839         1.000       
     289      -13.7839         1.000       
     288      -13.8893         1.000       
     287      -13.8893         1.000       
     286      -13.9771         1.000       
     285      -13.9771         1.000       
     284      -14.1233         1.000       
     283      -14.1233         1.000       
     282      -14.2968         1.000       
     281      -14.2968         1.000       
     280      -15.4792         1.000       
     279      -15.4792         1.000       
     278      -15.4980         1.000       
     277      -15.4980         1.000       
     276      -15.5286         1.000       
     275      -15.5286         1.000       
     274      -15.6514         1.000       
     273      -15.6514         1.000       
     272      -15.7072         1.000       
     271      -15.7072         1.000       
     270      -15.7976         1.000       
     269      -15.7976         1.000       
     268      -16.0162         1.000       
     267      -16.0162         1.000       
     266      -16.0598         1.000       
     265      -16.0598         1.000       
     264      -16.1560         1.000       
     263      -16.1560         1.000       
     262      -16.2612         1.000       
     261      -16.2612         1.000       
     260      -16.2868         1.000       
     259      -16.2868         1.000       
     258      -16.3718         1.000       
     257      -16.3718         1.000       
     256      -16.4713         1.000       
     255      -16.4713         1.000       
     254      -16.4979         1.000       
     253      -16.4979         1.000       
     252      -16.5991         1.000       
     251      -16.5991         1.000       
     250      -16.7186         1.000       
     249      -16.7186         1.000       
     248      -16.7765         1.000       
     247      -16.7765         1.000       
     246      -16.7885         1.000       
     245      -16.7885         1.000       
     244      -17.0429         1.000       
     243      -17.0429         1.000       
     242      -17.2332         1.000       
     241      -17.2332         1.000       
     240      -17.3996         1.000       
     239      -17.3996         1.000       
     238      -17.4174         1.000       
     237      -17.4174         1.000       
     236      -17.4492         1.000       
     235      -17.4492         1.000       
     234      -17.6096         1.000       
     233      -17.6096         1.000       
     232      -18.1241         1.000       
     231      -18.1241         1.000       
     230      -18.2239         1.000       
     229      -18.2239         1.000       
     228      -18.2488         1.000       
     227      -18.2488         1.000       
     226      -18.3509         1.000       
     225      -18.3509         1.000       
     224      -18.4518         1.000       
     223      -18.4518         1.000       
     222      -18.6268         1.000       
     221      -18.6268         1.000       
     220      -22.7429         1.000       
     219      -22.7429         1.000       
     218      -25.1666         1.000       
     217      -25.1666         1.000       
     216      -25.2580         1.000       
     215      -25.2580         1.000       
     214      -25.6409         1.000       
     213      -25.6409         1.000       
     212      -26.9849         1.000       
     211      -26.9849         1.000       
     210      -28.1247         1.000       
     209      -28.1247         1.000       
     208      -29.4586         1.000       
     207      -29.4586         1.000       
     206      -29.7948         1.000       
     205      -29.7948         1.000       
     204      -29.8264         1.000       
     203      -29.8264         1.000       
     202      -29.8654         1.000       
     201      -29.8654         1.000       
     200      -29.9569         1.000       
     199      -29.9569         1.000       
     198      -29.9727         1.000       
     197      -29.9727         1.000       
     196      -30.0869         1.000       
     195      -30.0869         1.000       
     194      -30.4501         1.000       
     193      -30.4501         1.000       
     192      -30.5203         1.000       
     191      -30.5203         1.000       
     190      -30.5581         1.000       
     189      -30.5581         1.000       
     188      -30.6665         1.000       
     187      -30.6665         1.000       
     186      -30.7305         1.000       
     185      -30.7305         1.000       
     184      -30.7374         1.000       
     183      -30.7374         1.000       
     182      -30.7850         1.000       
     181      -30.7850         1.000       
     180      -30.8503         1.000       
     179      -30.8503         1.000       
     178      -30.9183         1.000       
     177      -30.9183         1.000       
     176      -31.0207         1.000       
     175      -31.0207         1.000       
     174      -31.1126         1.000       
     173      -31.1126         1.000       
     172      -31.1996         1.000       
     171      -31.1996         1.000       
     170      -36.2336         1.000       
     169      -36.2336         1.000       
     168      -36.2678         1.000       
     167      -36.2678         1.000       
     166      -36.2755         1.000       
     165      -36.2755         1.000       
     164      -36.3931         1.000       
     163      -36.3931         1.000       
     162      -36.4736         1.000       
     161      -36.4736         1.000       
     160      -36.5808         1.000       
     159      -36.5808         1.000       
     158      -44.9016         1.000       
     157      -44.9016         1.000       
     156      -44.9793         1.000       
     155      -44.9793         1.000       
     154     -117.3016         1.000       
     153     -117.3016         1.000       
     152     -117.3422         1.000       
     151     -117.3422         1.000       
     150     -117.3481         1.000       
     149     -117.3481         1.000       
     148     -117.3609         1.000       
     147     -117.3609         1.000       
     146     -117.3905         1.000       
     145     -117.3905         1.000       
     144     -117.4130         1.000       
     143     -117.4130         1.000       
     142     -120.6687         1.000       
     141     -120.6687         1.000       
     140     -120.7138         1.000       
     139     -120.7138         1.000       
     138     -120.7154         1.000       
     137     -120.7154         1.000       
     136     -120.7646         1.000       
     135     -120.7646         1.000       
     134     -217.1801         1.000       
     133     -217.1801         1.000       
     132     -217.2232         1.000       
     131     -217.2232         1.000       
     130     -217.2415         1.000       
     129     -217.2415         1.000       
     128     -217.2915         1.000       
     127     -217.2915         1.000       
     126     -236.3479         1.000       
     125     -236.3479         1.000       
     124     -236.3938         1.000       
     123     -236.3938         1.000       
     122     -294.3785         1.000       
     121     -294.3785         1.000       
     120     -294.4331         1.000       
     119     -294.4331         1.000       
     118     -399.8577         1.000       
     117     -399.8577         1.000       
     116     -399.8687         1.000       
     115     -399.8687         1.000       
     114     -399.8717         1.000       
     113     -399.8717         1.000       
     112     -399.9971         1.000       
     111     -399.9971         1.000       
     110     -400.0283         1.000       
     109     -400.0283         1.000       
     108     -400.1577         1.000       
     107     -400.1577         1.000       
     106     -523.7184         1.000       
     105     -523.7184         1.000       
     104     -524.4846         1.000       
     103     -524.4846         1.000       
     102     -524.4949         1.000       
     101     -524.4949         1.000       
     100     -524.4960         1.000       
      99     -524.4960         1.000       
      98     -524.6249         1.000       
      97     -524.6249         1.000       
      96     -524.6405         1.000       
      95     -524.6405         1.000       
      94     -524.6554         1.000       
      93     -524.6554         1.000       
      92     -524.6825         1.000       
      91     -524.6825         1.000       
      90     -524.7010         1.000       
      89     -524.7010         1.000       
      88     -524.7054         1.000       
      87     -524.7054         1.000       
      86     -524.7447         1.000       
      85     -524.7447         1.000       
      84     -524.7616         1.000       
      83     -524.7616         1.000       
      82     -524.7702         1.000       
      81     -524.7702         1.000       
      80     -524.7968         1.000       
      79     -524.7968         1.000       
      78     -524.8251         1.000       
      77     -524.8251         1.000       
      76     -524.8299         1.000       
      75     -524.8299         1.000       
      74     -524.8644         1.000       
      73     -524.8644         1.000       
      72     -524.9155         1.000       
      71     -524.9155         1.000       
      70     -525.0207         1.000       
      69     -525.0207         1.000       
      68     -525.1844         1.000       
      67     -525.1844         1.000       
      66     -525.5725         1.000       
      65     -525.5725         1.000       
      64     -525.5740         1.000       
      63     -525.5740         1.000       
      62     -525.5778         1.000       
      61     -525.5778         1.000       
      60     -525.7499         1.000       
      59     -525.7499         1.000       
      58     -525.8619         1.000       
      57     -525.8619         1.000       
      56     -879.8039         1.000       
      55     -879.8039         1.000       
      54     -879.8427         1.000       
      53     -879.8427         1.000       
      52     -879.8450         1.000       
      51     -879.8450         1.000       
      50     -879.8701         1.000       
      49     -879.8701         1.000       
      48     -879.8875         1.000       
      47     -879.8875         1.000       
      46     -879.9177         1.000       
      45     -879.9177         1.000       
      44     -898.4615         1.000       
      43     -898.4615         1.000       
      42     -898.5015         1.000       
      41     -898.5015         1.000       
      40     -898.5101         1.000       
      39     -898.5101         1.000       
      38     -898.5563         1.000       
      37     -898.5563         1.000       
      36    -1169.5793         1.000       
      35    -1169.5793         1.000       
      34    -1169.6172         1.000       
      33    -1169.6172         1.000       
      32    -1169.6432         1.000       
      31    -1169.6432         1.000       
      30    -1169.6895         1.000       
      29    -1169.6895         1.000       
      28    -1257.8270         1.000       
      27    -1257.8270         1.000       
      26    -1257.8695         1.000       
      25    -1257.8695         1.000       
      24    -1411.7587         1.000       
      23    -1411.7587         1.000       
      22    -1411.8160         1.000       
      21    -1411.8160         1.000       
      20    -5674.0293         1.000       
      19    -5674.0293         1.000       
      18    -5674.0379         1.000       
      17    -5674.0379         1.000       
      16    -5674.0908         1.000       
      15    -5674.0908         1.000       
      14    -5674.1001         1.000       
      13    -5674.1001         1.000       
      12    -6120.2846         1.000       
      11    -6120.2846         1.000       
      10    -6120.3477         1.000       
       9    -6120.3477         1.000       
       8    -6486.2193         1.000       
       7    -6486.2193         1.000       
       6    -6486.2815         1.000       
       5    -6486.2815         1.000       
       4   -40323.4179         1.000       
       3   -40323.4179         1.000       
       2   -40323.4986         1.000       
       1   -40323.4986         1.000       

AMS application finished. Exiting.
NORMAL TERMINATION
     Total cpu time:    2950.26
  Total system time:     115.52
 Total elapsed time:    3071.63
