

 Parallel Execution: Process Information
 ==============================================================================
 Rank   Node Name                              NodeID   MyNodeRank  NodeMaster
    0   u-0-11.local                              0          0          0
    1   u-0-11.local                              0          1         -1
    2   u-0-11.local                              1          0          1
    3   u-0-11.local                              1          1         -1
    4   u-0-11.local                              2          0          2
    5   u-0-11.local                              2          1         -1
    6   u-0-11.local                              3          0          3
    7   u-0-11.local                              3          1         -1
 ==============================================================================


May use up to 31200MB of RAM as shared memory on node 0
May use up to 31250MB of RAM as shared memory on node 3
May use up to 31250MB of RAM as shared memory on node 2
May use up to 31250MB of RAM as shared memory on node 1

 *******************************************************************************
 *                                                                             *
 *  --------------------------------                                           *
 *   Amsterdam Modeling Suite (AMS)              2023.101                      *
 *  --------------------------------                                           *
 *                                               r111868 2023-03-31            *
 *                                                                             *
 *                                                                             *
 *                              =================                              *
 *                              |               |                              *
 *                              |     A M S     |                              *
 *                              |               |                              *
 *                              =================                              *
 *                                                                             *
 *                                                                             *
 *   Online information and documentation:  https://www.scm.com/support/       *
 *   E-mail:  support@scm.com   info@scm.com                                   *
 *                                                                             *
 *   Scientific publications using AMS results must be properly referenced     *
 *   See the User Manuals (or the web site) for recommended citations          *
 *   The terms and conditions of the End User License Agreement apply to       *
 *   the use of AMS, https://www.scm.com/license-terms/                        *
 *                                                                             *
 **********************  x86_64_linux_intel / intelmpi  ************************
 
 Licensed to: Dr. Val?rie Vallet / Laboratoire PhLAM UMR 8523 / Villeneuve d'Ascq Cedex / FRANCE 2024-02-19 16:59:55
 SCM User ID: u10325
  
 AMS 2023.101  RunTime: Feb28-2024 11:27:53  ShM Nodes: 4  Procs: 8

 AMS jobname: CeIV-O-CeIV.eclipsed-noh2o.x2c-so.pbe0
 AMS jobid  : 473840181

 Start   directory: /home/vallet/ANL/CeIV-dimer/CeIV-O-CeIV/eclipsed-structure-Ce-dinuclear2/geom-pbe0-COSMO/sp-pbe0-SO/
 Results directory: /home/vallet/ANL/CeIV-dimer/CeIV-O-CeIV/eclipsed-structure-Ce-dinuclear2/geom-pbe0-COSMO/sp-pbe0-SO/CeIV-O-CeIV.eclipsed-noh2o.x2c-so.pbe0.results/
 Scratch directory: /state/partition2/vallet/1008357.phlam-s-sakura/amstmp_CeIV-O-CeIV.eclipsed-noh2o.x2c-so.pbe0_kid0.473840181/


 Communication costs MPI_COMM_WORLD:      1.608 usec per message,   0.0111 usec per 8-byte item
 Communication costs for intra-node:      0.383 usec per message,   0.0028 usec per 8-byte item

 RNG seed: -707003728 1623755075 -1096794311 -354397544 746736562 -235559179 1794786479 537966856



                      ************************************************************************
                      *  ADF 2023.101  RunTime: Feb28-2024 11:27:54  ShM Nodes: 4  Procs: 8  *
                      ************************************************************************
  

       ****************************
       * SINGLE POINT CALCULATION *
       ****************************
 
--------
Geometry
--------
Formula: H10Ce2N6O24
Atoms
  Index Symbol   x (angstrom)   y (angstrom)   z (angstrom)
      1      O     0.32477100    -0.23868100     1.92676800
      2     Ce     0.01390000    -0.03257600    -0.09948500
      3      O    -0.46483100     1.45508600    -2.14555200
      4      O     2.40193200    -0.77199700     0.04580000
      5      N     2.68359900    -0.64028100    -1.17705000
      6      O     3.78005200    -0.87174000    -1.61196300
      7      O     1.73645100    -0.24794000    -1.91109200
      8      O     0.27659700    -2.55542900     0.01917300
      9      O     1.59027600     1.92434000    -0.08472100
     10      N     0.82377300     2.76315200     0.45235800
     11      O     1.16879500     3.88641000     0.70399400
     12      O    -0.34197600     2.34303600     0.71108400
     13      O    -1.02590700    -1.25559000    -2.05501700
     14      O    -2.36315100     0.63917900    -0.21281400
     15      N    -2.86733000    -0.40448600     0.29178500
     16      O    -4.05367100    -0.53497900     0.43300900
     17      O    -2.04304100    -1.28845900     0.63272500
     18     Ce     0.50886800    -0.00466300     3.92351000
     19      O     1.37439700    -0.43617800     6.25351100
     20      O    -2.00621300     0.13204500     3.74609400
     21      N    -2.20971000     0.33411400     4.96756600
     22      O    -3.31059600     0.50609800     5.42245500
     23      O    -1.17607300     0.34781900     5.69849900
     24      O    -0.42986800     2.35717300     3.62899300
     25      O    -0.67496200    -2.20319100     4.22385800
     26      N     0.33383400    -2.93354400     4.03731900
     27      O     0.27275300    -4.13484400     4.06088700
     28      O     1.41387400    -2.31946500     3.82134400
     29      O     3.00042300    -0.21122000     3.83998200
     30      N     3.24529300     1.00928800     3.64555600
     31      O     4.36371400     1.43139500     3.52532600
     32      O     2.23181500     1.75862600     3.58253200
     33      H    -0.60495000     2.50304200     2.68369400
     34      H     1.10260700    -2.85190000     0.42018800
     35      H     0.18816500     3.05274400     3.88481000
     36      H    -0.42923600    -3.03379200     0.47092300
     37      H    -0.98761400    -0.72929900    -2.86370300
     38      H    -0.60340300    -2.10059700    -2.25237600
     39      H     0.74584600    -0.78618800     6.89662400
     40      H     0.27559000     1.94219000    -2.52685300
     41      H     2.18131400    -0.95634700     6.34928000
     42      H    -1.19116400     2.08602600    -2.07352400
 
Total System Charge             0.00000
Bonding info available!
 
 
----------------
ADF Engine Input
----------------
 
 Basis
 Type TZ2P
 Core None
 End
 XC
 Hybrid PBE0
 End
 Relativity
 Level Spin-Orbit
 Formalism X2C
 SpinOrbitMagnetization NonCollinear
 End
 

 Title: *** (NO TITLE) ***

 *** adf ***



 ===========================
 A T T A C H E D   F I L E S
 ===========================
  



 ===============================
 M O D E L   P A R A M E T E R S
 ===============================
  
 DENSITY FUNCTIONAL POTENTIAL (scf)
    Hybrid:                            PBE0                                    == Not Default ==

 SPIN  (restricted / unrestr.)
    Molecule:                          Restricted                               
    Fragments:                         Restricted                               

 OTHER ASPECTS
    Relativistic Corrections:          Spin-Orbit (X2C,MAPA)                   == Not Default ==

    Nuclear Charge Density Model:      Point Charge Nuclei                      
    Core Treatment:                    Frozen Orbital(s)                        

    Hyperfine or Zeeman Interaction:   ---                                      


 Fragment File(s)
 ----------------
 O:
         file : /home/vallet/ANL/CeIV-dimer/CeIV-O-CeIV/eclipsed-structure-Ce-dinuclear2/geom-pbe0-COSMO/sp-pbe0-SO/CeIV-O-CeIV.eclipsed-noh2o.x2c-so.pbe0.results/t21.5810AA2E.O
         jobid: 0
         title: Oxygen (TZ2P)
 Ce:
         file : /home/vallet/ANL/CeIV-dimer/CeIV-O-CeIV/eclipsed-structure-Ce-dinuclear2/geom-pbe0-COSMO/sp-pbe0-SO/CeIV-O-CeIV.eclipsed-noh2o.x2c-so.pbe0.results/t21.190B7557.Ce
         jobid: 0
         title: Cerium (TZP, all electron)
 N:
         file : /home/vallet/ANL/CeIV-dimer/CeIV-O-CeIV/eclipsed-structure-Ce-dinuclear2/geom-pbe0-COSMO/sp-pbe0-SO/CeIV-O-CeIV.eclipsed-noh2o.x2c-so.pbe0.results/t21.131ABD2B.N
         jobid: 0
         title: Nitrogen (TZ2P)
 H:
         file : /home/vallet/ANL/CeIV-dimer/CeIV-O-CeIV/eclipsed-structure-Ce-dinuclear2/geom-pbe0-COSMO/sp-pbe0-SO/CeIV-O-CeIV.eclipsed-noh2o.x2c-so.pbe0.results/t21.62BC803D.H
         jobid: 0
         title: Hydrogen (TZ2P)



 ===============
 G E O M E T R Y  ***  3D  Molecule  ***
 ===============
  

 ATOMS
 =====                            X Y Z                    CHARGE
                                (Angstrom)             Nucl     +Core       At.Mass
                       --------------------------    ----------------       -------
    1  O               0.3248   -0.2387    1.9268      8.00      8.00       15.9949
    2  Ce              0.0139   -0.0326   -0.0995     58.00     58.00      139.9054
    3  O              -0.4648    1.4551   -2.1456      8.00      8.00       15.9949
    4  O               2.4019   -0.7720    0.0458      8.00      8.00       15.9949
    5  N               2.6836   -0.6403   -1.1770      7.00      7.00       14.0031
    6  O               3.7801   -0.8717   -1.6120      8.00      8.00       15.9949
    7  O               1.7365   -0.2479   -1.9111      8.00      8.00       15.9949
    8  O               0.2766   -2.5554    0.0192      8.00      8.00       15.9949
    9  O               1.5903    1.9243   -0.0847      8.00      8.00       15.9949
   10  N               0.8238    2.7632    0.4524      7.00      7.00       14.0031
   11  O               1.1688    3.8864    0.7040      8.00      8.00       15.9949
   12  O              -0.3420    2.3430    0.7111      8.00      8.00       15.9949
   13  O              -1.0259   -1.2556   -2.0550      8.00      8.00       15.9949
   14  O              -2.3632    0.6392   -0.2128      8.00      8.00       15.9949
   15  N              -2.8673   -0.4045    0.2918      7.00      7.00       14.0031
   16  O              -4.0537   -0.5350    0.4330      8.00      8.00       15.9949
   17  O              -2.0430   -1.2885    0.6327      8.00      8.00       15.9949
   18  Ce              0.5089   -0.0047    3.9235     58.00     58.00      139.9054
   19  O               1.3744   -0.4362    6.2535      8.00      8.00       15.9949
   20  O              -2.0062    0.1320    3.7461      8.00      8.00       15.9949
   21  N              -2.2097    0.3341    4.9676      7.00      7.00       14.0031
   22  O              -3.3106    0.5061    5.4225      8.00      8.00       15.9949
   23  O              -1.1761    0.3478    5.6985      8.00      8.00       15.9949
   24  O              -0.4299    2.3572    3.6290      8.00      8.00       15.9949
   25  O              -0.6750   -2.2032    4.2239      8.00      8.00       15.9949
   26  N               0.3338   -2.9335    4.0373      7.00      7.00       14.0031
   27  O               0.2728   -4.1348    4.0609      8.00      8.00       15.9949
   28  O               1.4139   -2.3195    3.8213      8.00      8.00       15.9949
   29  O               3.0004   -0.2112    3.8400      8.00      8.00       15.9949
   30  N               3.2453    1.0093    3.6456      7.00      7.00       14.0031
   31  O               4.3637    1.4314    3.5253      8.00      8.00       15.9949
   32  O               2.2318    1.7586    3.5825      8.00      8.00       15.9949
   33  H              -0.6049    2.5030    2.6837      1.00      1.00        1.0078
   34  H               1.1026   -2.8519    0.4202      1.00      1.00        1.0078
   35  H               0.1882    3.0527    3.8848      1.00      1.00        1.0078
   36  H              -0.4292   -3.0338    0.4709      1.00      1.00        1.0078
   37  H              -0.9876   -0.7293   -2.8637      1.00      1.00        1.0078
   38  H              -0.6034   -2.1006   -2.2524      1.00      1.00        1.0078
   39  H               0.7458   -0.7862    6.8966      1.00      1.00        1.0078
   40  H               0.2756    1.9422   -2.5269      1.00      1.00        1.0078
   41  H               2.1813   -0.9563    6.3493      1.00      1.00        1.0078
   42  H              -1.1912    2.0860   -2.0735      1.00      1.00        1.0078


 FRAGMENTS
 =========                                     Atoms in this Fragment     Cart. coord.s (Angstrom)
                                               -------------------------------------------------------
    1  O                                                 1  O            0.3248   -0.2387    1.9268
    2  O                                                 3  O           -0.4648    1.4551   -2.1456
    3  O                                                 4  O            2.4019   -0.7720    0.0458
    4  O                                                 6  O            3.7801   -0.8717   -1.6120
    5  O                                                 7  O            1.7365   -0.2479   -1.9111
    6  O                                                 8  O            0.2766   -2.5554    0.0192
    7  O                                                 9  O            1.5903    1.9243   -0.0847
    8  O                                                11  O            1.1688    3.8864    0.7040
    9  O                                                12  O           -0.3420    2.3430    0.7111
   10  O                                                13  O           -1.0259   -1.2556   -2.0550
   11  O                                                14  O           -2.3632    0.6392   -0.2128
   12  O                                                16  O           -4.0537   -0.5350    0.4330
   13  O                                                17  O           -2.0430   -1.2885    0.6327
   14  O                                                19  O            1.3744   -0.4362    6.2535
   15  O                                                20  O           -2.0062    0.1320    3.7461
   16  O                                                22  O           -3.3106    0.5061    5.4225
   17  O                                                23  O           -1.1761    0.3478    5.6985
   18  O                                                24  O           -0.4299    2.3572    3.6290
   19  O                                                25  O           -0.6750   -2.2032    4.2239
   20  O                                                27  O            0.2728   -4.1348    4.0609
   21  O                                                28  O            1.4139   -2.3195    3.8213
   22  O                                                29  O            3.0004   -0.2112    3.8400
   23  O                                                31  O            4.3637    1.4314    3.5253
   24  O                                                32  O            2.2318    1.7586    3.5825
   25  Ce                                                2  Ce           0.0139   -0.0326   -0.0995
   26  Ce                                               18  Ce           0.5089   -0.0047    3.9235
   27  N                                                 5  N            2.6836   -0.6403   -1.1770
   28  N                                                10  N            0.8238    2.7632    0.4524
   29  N                                                15  N           -2.8673   -0.4045    0.2918
   30  N                                                21  N           -2.2097    0.3341    4.9676
   31  N                                                26  N            0.3338   -2.9335    4.0373
   32  N                                                30  N            3.2453    1.0093    3.6456
   33  H                                                33  H           -0.6049    2.5030    2.6837
   34  H                                                34  H            1.1026   -2.8519    0.4202
   35  H                                                35  H            0.1882    3.0527    3.8848
   36  H                                                36  H           -0.4292   -3.0338    0.4709
   37  H                                                37  H           -0.9876   -0.7293   -2.8637
   38  H                                                38  H           -0.6034   -2.1006   -2.2524
   39  H                                                39  H            0.7458   -0.7862    6.8966
   40  H                                                40  H            0.2756    1.9422   -2.5269
   41  H                                                41  H            2.1813   -0.9563    6.3493
   42  H                                                42  H           -1.1912    2.0860   -2.0735



 =====================================
 S Y M M E T R Y ,   E L E C T R O N S
 =====================================
  
 Symmetry: NOSYM

 Double Group Irreducible Representations (spinor symmetry)
 -----------------------------------------------------------
 A1/2

 Symmetry is NOT used when fitting density


 Configuration of Valence Electrons
 ==================================
 ( determined in the SCF procedure )

 Total:   360

 Net Charge: 0 (Nuclei minus Electrons)

 Aufbau principle for MO occupations will be applied through SCF cycle no.     150
 Thereafter, the program will assign electrons to MOs that are spatially
 similar to the occupied MOs in a "reference" cycle ("KeepOrbitals").
 The reference cycle is always the PREVIOUS cycle: it will evolve with
 the SCF procedure.
1
 ***************************************************************************************************



                                      ****************************************
                                      *  B U I L D : (Fragments, Functions)  *
                                      ****************************************
  

 Total nr. of (C)SFOs (summation over all irreps) :  1090

 Specify PRINT SFO in the input file to get a full list

 Nr. of SFOs for ir.rep.           A :  1090



 ================================
 (Slater-type)  F U N C T I O N S  ***  (Basis and Fit)  ***
 ================================
  

 Atom Type    1  (O)
 ==============

 Valence Basis Sets:  10
 -----------------------
   1 S    9.800000
   1 S    6.800000
   2 S    7.580000
   2 S    2.880000
   2 S    1.720000
   2 P    4.080000
   2 P    2.080000
   2 P    1.120000
   3 D    2.000000
   4 F    3.000000

 Charge Fitting Sets (for the computation of the Coulomb Potential):  22
 -----------------------------------------------------------------------
   1 S   19.600000
   2 S   22.600000
   2 S   15.680000
   2 S   10.890000
   2 S    7.560000
   3 S    7.690000
   3 S    5.650000
   3 S    4.150000
   3 S    3.050000
   3 S    2.240000
   2 P   12.860000
   2 P    7.680000
   3 P    6.780000
   3 P    4.390000
   3 P    2.840000
   3 D    8.800000
   3 D    5.580000
   3 D    3.530000
   3 D    2.240000
   4 F    6.200000
   4 F    3.700000
   5 G    4.500000

 Atom Type    2  (Ce)
 ==============

 Valence Basis Sets:  34
 -----------------------
   1 S  452.000000
   1 S  112.400000
   1 S   59.900000
   2 S   67.200000
   2 S   25.900000
   3 S   13.850000
   3 S   11.000000
   4 S   10.500000
   4 S    6.600000
   5 S    4.300000
   5 S    2.800000
   6 S    1.950000
   6 S    1.250000
   6 S    0.820000
   2 P  112.400000
   2 P   40.100000
   2 P   24.950000
   3 P   14.600000
   3 P   11.200000
   4 P    8.300000
   4 P    5.650000
   5 P    3.650000
   5 P    2.250000
   3 D   18.900000
   3 D   11.500000
   4 D    7.550000
   4 D    4.650000
   5 D    2.900000
   5 D    1.600000
   5 D    0.900000
   4 F    8.150000
   4 F    3.800000
   4 F    1.650000
   6 P    1.250000

 Charge Fitting Sets (for the computation of the Coulomb Potential):  73
 -----------------------------------------------------------------------
   1 S  904.000000
   1 S  677.300000
   1 S  507.450000
   1 S  380.195000
   1 S  284.852000
   1 S  213.418000
   1 S  159.898000
   1 S  119.800000
   1 S   71.430000
   2 S   78.880000
   2 S   52.890000
   3 S   52.070000
   3 S   37.160000
   4 S   35.060000
   4 S   26.040000
   5 S   24.090000
   5 S   18.410000
   6 S   16.860000
   6 S   13.160000
   7 S   11.990000
   7 S    9.520000
   8 S    8.650000
   8 S    6.960000
   9 S    6.310000
   9 S    5.150000
  10 S    4.660000
  10 S    3.840000
  10 S    3.160000
  11 S    2.860000
  11 S    2.380000
  11 S    1.970000
  11 S    1.640000
   2 P   84.850000
   3 P   69.680000
   4 P   56.300000
   5 P   45.370000
   5 P   30.410000
   6 P   24.560000
   6 P   17.000000
   7 P   13.780000
   7 P    9.790000
   8 P    7.970000
   8 P    5.780000
   9 P    4.730000
   9 P    3.490000
  10 P    2.870000
  10 P    2.150000
   3 D   71.400000
   4 D   50.910000
   5 D   36.700000
   6 D   26.770000
   7 D   19.760000
   7 D   12.810000
   8 D    9.560000
   8 D    6.360000
   9 D    4.790000
   9 D    3.260000
  10 D    2.480000
  10 D    1.720000
   4 F   63.700000
   5 F   39.060000
   6 F   24.580000
   7 F   15.830000
   8 F   10.400000
   8 F    6.110000
   9 F    4.080000
   9 F    2.470000
   5 G   28.750000
   6 G   16.000000
   7 G    9.190000
   8 G    5.430000
   9 G    3.280000
   9 G    1.800000

 Atom Type    3  (N)
 ==============

 Valence Basis Sets:  10
 -----------------------
   1 S    8.740000
   1 S    5.900000
   2 S    5.150000
   2 S    2.500000
   2 S    1.500000
   2 P    3.680000
   2 P    1.880000
   2 P    1.000000
   3 D    2.200000
   4 F    3.300000

 Charge Fitting Sets (for the computation of the Coulomb Potential):  22
 -----------------------------------------------------------------------
   1 S   17.480000
   2 S   20.150000
   2 S   13.990000
   2 S    9.710000
   2 S    6.740000
   3 S    6.860000
   3 S    5.040000
   3 S    3.700000
   3 S    2.720000
   3 S    2.000000
   2 P   11.320000
   2 P    6.730000
   3 P    5.920000
   3 P    3.820000
   3 P    2.460000
   3 D    8.100000
   3 D    5.080000
   3 D    3.190000
   3 D    2.000000
   4 F    5.800000
   4 F    3.600000
   5 G    4.500000

 Atom Type    4  (H)
 ==============

 Valence Basis Sets:   5
 -----------------------
   1 S    0.690000
   1 S    0.920000
   1 S    1.580000
   2 P    1.250000
   3 D    2.500000

 Charge Fitting Sets (for the computation of the Coulomb Potential):  11
 -----------------------------------------------------------------------
   1 S    3.160000
   1 S    2.090000
   1 S    1.380000
   2 S    1.500000
   2 P    4.000000
   2 P    2.650000
   2 P    1.750000
   3 D    4.000000
   3 D    2.500000
   4 F    3.000000
   5 G    4.000000


 BAS: List of all Elementary Cartesian Basis Functions
 =====================================================

 The numbering in the list below (to the right of the function characteristics) is referred
 to in print-outs of MO eigenvectors and Mulliken populations in the BAS representation
 (as contrasted to the SFO representation).

 Notes:
 1. The functions are characterized by a polynomial prefactor (powers of x,y,z and r) and
    an exponential decay factor alpha.
 2. Since the basis sets are specific for an atom TYPE, the individual functions occur on
    all atoms of that type.
 3. The word 'Core' in the left margin signals that it is a Core Function (CF) : not a
    degree of freedom in the valence set, but only used to ensure orthogonalization of
    the other valence basis functions on the frozen Core Orbitals.


 (power of) X  Y  Z  R     Alpha  on Atom
            ==========     =====     ==========

 O                                    1    2    3    4    5    6    7    8    9   10   11   12   13   14   15
                                     16   17   18   19   20   21   22   23   24
                                  ---------------------------------------------------------------------------
            0  0  0  0     9.800      1   31   61   91  121  151  181  211  241  271  301  331  361  391  421
                                    451  481  511  541  571  601  631  661  691
            0  0  0  0     6.800      2   32   62   92  122  152  182  212  242  272  302  332  362  392  422
                                    452  482  512  542  572  602  632  662  692
            0  0  0  1     7.580      3   33   63   93  123  153  183  213  243  273  303  333  363  393  423
                                    453  483  513  543  573  603  633  663  693
            0  0  0  1     2.880      4   34   64   94  124  154  184  214  244  274  304  334  364  394  424
                                    454  484  514  544  574  604  634  664  694
            0  0  0  1     1.720      5   35   65   95  125  155  185  215  245  275  305  335  365  395  425
                                    455  485  515  545  575  605  635  665  695
            1  0  0  0     4.080      6   36   66   96  126  156  186  216  246  276  306  336  366  396  426
                                    456  486  516  546  576  606  636  666  696
            0  1  0  0     4.080      7   37   67   97  127  157  187  217  247  277  307  337  367  397  427
                                    457  487  517  547  577  607  637  667  697
            0  0  1  0     4.080      8   38   68   98  128  158  188  218  248  278  308  338  368  398  428
                                    458  488  518  548  578  608  638  668  698
            1  0  0  0     2.080      9   39   69   99  129  159  189  219  249  279  309  339  369  399  429
                                    459  489  519  549  579  609  639  669  699
            0  1  0  0     2.080     10   40   70  100  130  160  190  220  250  280  310  340  370  400  430
                                    460  490  520  550  580  610  640  670  700
            0  0  1  0     2.080     11   41   71  101  131  161  191  221  251  281  311  341  371  401  431
                                    461  491  521  551  581  611  641  671  701
            1  0  0  0     1.120     12   42   72  102  132  162  192  222  252  282  312  342  372  402  432
                                    462  492  522  552  582  612  642  672  702
            0  1  0  0     1.120     13   43   73  103  133  163  193  223  253  283  313  343  373  403  433
                                    463  493  523  553  583  613  643  673  703
            0  0  1  0     1.120     14   44   74  104  134  164  194  224  254  284  314  344  374  404  434
                                    464  494  524  554  584  614  644  674  704
            2  0  0  0     2.000     15   45   75  105  135  165  195  225  255  285  315  345  375  405  435
                                    465  495  525  555  585  615  645  675  705
            1  1  0  0     2.000     16   46   76  106  136  166  196  226  256  286  316  346  376  406  436
                                    466  496  526  556  586  616  646  676  706
            1  0  1  0     2.000     17   47   77  107  137  167  197  227  257  287  317  347  377  407  437
                                    467  497  527  557  587  617  647  677  707
            0  2  0  0     2.000     18   48   78  108  138  168  198  228  258  288  318  348  378  408  438
                                    468  498  528  558  588  618  648  678  708
            0  1  1  0     2.000     19   49   79  109  139  169  199  229  259  289  319  349  379  409  439
                                    469  499  529  559  589  619  649  679  709
            0  0  2  0     2.000     20   50   80  110  140  170  200  230  260  290  320  350  380  410  440
                                    470  500  530  560  590  620  650  680  710
            3  0  0  0     3.000     21   51   81  111  141  171  201  231  261  291  321  351  381  411  441
                                    471  501  531  561  591  621  651  681  711
            2  1  0  0     3.000     22   52   82  112  142  172  202  232  262  292  322  352  382  412  442
                                    472  502  532  562  592  622  652  682  712
            2  0  1  0     3.000     23   53   83  113  143  173  203  233  263  293  323  353  383  413  443
                                    473  503  533  563  593  623  653  683  713
            1  2  0  0     3.000     24   54   84  114  144  174  204  234  264  294  324  354  384  414  444
                                    474  504  534  564  594  624  654  684  714
            1  1  1  0     3.000     25   55   85  115  145  175  205  235  265  295  325  355  385  415  445
                                    475  505  535  565  595  625  655  685  715
            1  0  2  0     3.000     26   56   86  116  146  176  206  236  266  296  326  356  386  416  446
                                    476  506  536  566  596  626  656  686  716
            0  3  0  0     3.000     27   57   87  117  147  177  207  237  267  297  327  357  387  417  447
                                    477  507  537  567  597  627  657  687  717
            0  2  1  0     3.000     28   58   88  118  148  178  208  238  268  298  328  358  388  418  448
                                    478  508  538  568  598  628  658  688  718
            0  1  2  0     3.000     29   59   89  119  149  179  209  239  269  299  329  359  389  419  449
                                    479  509  539  569  599  629  659  689  719
            0  0  3  0     3.000     30   60   90  120  150  180  210  240  270  300  330  360  390  420  450
                                    480  510  540  570  600  630  660  690  720

 Ce                                  25   26
                                  ---------------------------------------------------------------------------
            0  0  0  0   452.000    721  837
            0  0  0  0   112.400    722  838
            0  0  0  0    59.900    723  839
            0  0  0  1    67.200    724  840
            0  0  0  1    25.900    725  841
            0  0  0  2    13.850    726  842
            0  0  0  2    11.000    727  843
            0  0  0  3    10.500    728  844
            0  0  0  3     6.600    729  845
            0  0  0  4     4.300    730  846
            0  0  0  4     2.800    731  847
            0  0  0  5     1.950    732  848
            0  0  0  5     1.250    733  849
            0  0  0  5     0.820    734  850
            1  0  0  0   112.400    735  851
            0  1  0  0   112.400    736  852
            0  0  1  0   112.400    737  853
            1  0  0  0    40.100    738  854
            0  1  0  0    40.100    739  855
            0  0  1  0    40.100    740  856
            1  0  0  0    24.950    741  857
            0  1  0  0    24.950    742  858
            0  0  1  0    24.950    743  859
            1  0  0  1    14.600    744  860
            0  1  0  1    14.600    745  861
            0  0  1  1    14.600    746  862
            1  0  0  1    11.200    747  863
            0  1  0  1    11.200    748  864
            0  0  1  1    11.200    749  865
            1  0  0  2     8.300    750  866
            0  1  0  2     8.300    751  867
            0  0  1  2     8.300    752  868
            1  0  0  2     5.650    753  869
            0  1  0  2     5.650    754  870
            0  0  1  2     5.650    755  871
            1  0  0  3     3.650    756  872
            0  1  0  3     3.650    757  873
            0  0  1  3     3.650    758  874
            1  0  0  3     2.250    759  875
            0  1  0  3     2.250    760  876
            0  0  1  3     2.250    761  877
            2  0  0  0    18.900    762  878
            1  1  0  0    18.900    763  879
            1  0  1  0    18.900    764  880
            0  2  0  0    18.900    765  881
            0  1  1  0    18.900    766  882
            0  0  2  0    18.900    767  883
            2  0  0  0    11.500    768  884
            1  1  0  0    11.500    769  885
            1  0  1  0    11.500    770  886
            0  2  0  0    11.500    771  887
            0  1  1  0    11.500    772  888
            0  0  2  0    11.500    773  889
            2  0  0  1     7.550    774  890
            1  1  0  1     7.550    775  891
            1  0  1  1     7.550    776  892
            0  2  0  1     7.550    777  893
            0  1  1  1     7.550    778  894
            0  0  2  1     7.550    779  895
            2  0  0  1     4.650    780  896
            1  1  0  1     4.650    781  897
            1  0  1  1     4.650    782  898
            0  2  0  1     4.650    783  899
            0  1  1  1     4.650    784  900
            0  0  2  1     4.650    785  901
            2  0  0  2     2.900    786  902
            1  1  0  2     2.900    787  903
            1  0  1  2     2.900    788  904
            0  2  0  2     2.900    789  905
            0  1  1  2     2.900    790  906
            0  0  2  2     2.900    791  907
            2  0  0  2     1.600    792  908
            1  1  0  2     1.600    793  909
            1  0  1  2     1.600    794  910
            0  2  0  2     1.600    795  911
            0  1  1  2     1.600    796  912
            0  0  2  2     1.600    797  913
            2  0  0  2     0.900    798  914
            1  1  0  2     0.900    799  915
            1  0  1  2     0.900    800  916
            0  2  0  2     0.900    801  917
            0  1  1  2     0.900    802  918
            0  0  2  2     0.900    803  919
            3  0  0  0     8.150    804  920
            2  1  0  0     8.150    805  921
            2  0  1  0     8.150    806  922
            1  2  0  0     8.150    807  923
            1  1  1  0     8.150    808  924
            1  0  2  0     8.150    809  925
            0  3  0  0     8.150    810  926
            0  2  1  0     8.150    811  927
            0  1  2  0     8.150    812  928
            0  0  3  0     8.150    813  929
            3  0  0  0     3.800    814  930
            2  1  0  0     3.800    815  931
            2  0  1  0     3.800    816  932
            1  2  0  0     3.800    817  933
            1  1  1  0     3.800    818  934
            1  0  2  0     3.800    819  935
            0  3  0  0     3.800    820  936
            0  2  1  0     3.800    821  937
            0  1  2  0     3.800    822  938
            0  0  3  0     3.800    823  939
            3  0  0  0     1.650    824  940
            2  1  0  0     1.650    825  941
            2  0  1  0     1.650    826  942
            1  2  0  0     1.650    827  943
            1  1  1  0     1.650    828  944
            1  0  2  0     1.650    829  945
            0  3  0  0     1.650    830  946
            0  2  1  0     1.650    831  947
            0  1  2  0     1.650    832  948
            0  0  3  0     1.650    833  949
            1  0  0  4     1.250    834  950
            0  1  0  4     1.250    835  951
            0  0  1  4     1.250    836  952

 N                                   27   28   29   30   31   32
                                  ---------------------------------------------------------------------------
            0  0  0  0     8.740    953  983 1013 1043 1073 1103
            0  0  0  0     5.900    954  984 1014 1044 1074 1104
            0  0  0  1     5.150    955  985 1015 1045 1075 1105
            0  0  0  1     2.500    956  986 1016 1046 1076 1106
            0  0  0  1     1.500    957  987 1017 1047 1077 1107
            1  0  0  0     3.680    958  988 1018 1048 1078 1108
            0  1  0  0     3.680    959  989 1019 1049 1079 1109
            0  0  1  0     3.680    960  990 1020 1050 1080 1110
            1  0  0  0     1.880    961  991 1021 1051 1081 1111
            0  1  0  0     1.880    962  992 1022 1052 1082 1112
            0  0  1  0     1.880    963  993 1023 1053 1083 1113
            1  0  0  0     1.000    964  994 1024 1054 1084 1114
            0  1  0  0     1.000    965  995 1025 1055 1085 1115
            0  0  1  0     1.000    966  996 1026 1056 1086 1116
            2  0  0  0     2.200    967  997 1027 1057 1087 1117
            1  1  0  0     2.200    968  998 1028 1058 1088 1118
            1  0  1  0     2.200    969  999 1029 1059 1089 1119
            0  2  0  0     2.200    970 1000 1030 1060 1090 1120
            0  1  1  0     2.200    971 1001 1031 1061 1091 1121
            0  0  2  0     2.200    972 1002 1032 1062 1092 1122
            3  0  0  0     3.300    973 1003 1033 1063 1093 1123
            2  1  0  0     3.300    974 1004 1034 1064 1094 1124
            2  0  1  0     3.300    975 1005 1035 1065 1095 1125
            1  2  0  0     3.300    976 1006 1036 1066 1096 1126
            1  1  1  0     3.300    977 1007 1037 1067 1097 1127
            1  0  2  0     3.300    978 1008 1038 1068 1098 1128
            0  3  0  0     3.300    979 1009 1039 1069 1099 1129
            0  2  1  0     3.300    980 1010 1040 1070 1100 1130
            0  1  2  0     3.300    981 1011 1041 1071 1101 1131
            0  0  3  0     3.300    982 1012 1042 1072 1102 1132

 H                                   33   34   35   36   37   38   39   40   41   42
                                  ---------------------------------------------------------------------------
            0  0  0  0     0.690   1133 1145 1157 1169 1181 1193 1205 1217 1229 1241
            0  0  0  0     0.920   1134 1146 1158 1170 1182 1194 1206 1218 1230 1242
            0  0  0  0     1.580   1135 1147 1159 1171 1183 1195 1207 1219 1231 1243
            1  0  0  0     1.250   1136 1148 1160 1172 1184 1196 1208 1220 1232 1244
            0  1  0  0     1.250   1137 1149 1161 1173 1185 1197 1209 1221 1233 1245
            0  0  1  0     1.250   1138 1150 1162 1174 1186 1198 1210 1222 1234 1246
            2  0  0  0     2.500   1139 1151 1163 1175 1187 1199 1211 1223 1235 1247
            1  1  0  0     2.500   1140 1152 1164 1176 1188 1200 1212 1224 1236 1248
            1  0  1  0     2.500   1141 1153 1165 1177 1189 1201 1213 1225 1237 1249
            0  2  0  0     2.500   1142 1154 1166 1178 1190 1202 1214 1226 1238 1250
            0  1  1  0     2.500   1143 1155 1167 1179 1191 1203 1215 1227 1239 1251
            0  0  2  0     2.500   1144 1156 1168 1180 1192 1204 1216 1228 1240 1252

 Total number of charge fitting functions (nprimf)      3658
 Total number of Cartesian basis functions (naos)       1252
 Total number of Cartesian core functions  (ncos)          0

1
 ***************************************************************************************************



                                              ***********************
                                              *  T E C H N I C A L  *
                                              ***********************
  



 =============================================================
 P A R A L L E L I Z A T I O N  and  V E C T O R I Z A T I O N
 =============================================================
  
 Nr of parallel processes:                                8
 Maximum vector length in NumInt loops:                 128



 =====================
 S C F   U P D A T E S
 =====================
  
 Max. nr. of cycles:                               300
 Convergence criterion:                              0.0000010000
   secondary criterion:                              0.0010000000

 Mix parameter (when DIIS does not apply):           0.2000000000
 Mixed ADIIS+SDIIS will be used                  
    Max number of expansion vectors:                10
    Pure ADIIS when Max([F,P]) is above              0.1000000000
    Pure SDIIS when Max([F,P]) is below              0.0010000000
 Automatic ElectronSmearing (in case of problematic SCF convergence) disabled



 =================
 P R E C I S I O N  ***  (General: NumInt, NeglectFunctionTails, ...)  ***
 =================
  

 NumInt:           Target precision:                 4.0000000000
 -------           Initial precision:                4.0000000000
                   Min. precision (optimization):    4.0000000000

 Neglect Functions:          Basis functions:        0.1000000000E-05
 ------------------          Fit functions:          0.1000000000E-05



 ===========================
 L I N E A R   S C A L I N G
 ===========================
  

 Cut-off radii density fit:                        0.1000000000E-07
 Overlap cut-off criterion AO matrix elements:     0.1000000000E-05
 Cut-offs for Coulomb potential and fitted density:0.1000000000E-07
 Cut-off criterion for Coulomb multipole terms:    0.1000000000E-07
 Progressive Convergence parameter:                 0.000000000    
1
 ***************************************************************************************************



                                            ***************************
                                            *  C O M P U T A T I O N  *
                                            ***************************
  



 ==============================
 Double group spinor symmetries  ***  (Spin-Orbit)  ***
 ==============================
  

 The double group Lowdins are spinors adapted to the irreducible representations
 of the double group. These double group Lowdins are linear combinations of
 products of the single group Lowdins and the spinfunctions. The single group
 Lowdins are  orthonormalized symmetrized fragment orbitals (SFOs).
 The complex coefficients that are used in the linear combinations are also
 known as Clebsch-Gordan coefficients.
 The spin functions (alpha,beta) span irrep e1/2


          A * e 1/2 :      A1/2

  A1/2:1 = A.alpha
  A1/2:1 = A.beta

 The table summarizes which one-electron orbital irreps (single group) couple
 with spin to which spinor irreps (double group).
 The Clebsch-Gordan series for each direct product: orbital irrep times e1/2.
                  A
            -------
  A1/2           X


 dimension (equal to the max. nr. of electrons per spinor) of the double group irreps
 ------------------------------------------------------------------------------------
  A1/2           1

 Number of elements of the density matrix on this node (used, total):    103809    784378



 ===========================================
 Numerical Integration : Fuzzy Cells (Becke)
 ===========================================
  
 Becke grid quality: NORMAL         
  
 Lebedev angular grid order:             min:  11 max:  31
 Nr. of radial points:                   min:  46 max: 144

 Total nr. of points:     319795
 Nr. of blocks:             2499
 Block length:               128
 Nr. of dummy points:         77


 Test of Precision of the Numerical Integration Grid
 ===================================================

 Integral of the Total Core Density:                   0.00000000000000



 ========================
 Density Fitting (zlmFit)
 ========================
  
 ZlmFit Fit Quality: NORMAL         
  
 Max L-expansion:                        min:   6 max:   8
 Nr. of radial interpolation points:     min:  39 max: 132



 ======================
 RI Hartree-Fock Scheme
 ======================
  
 Fit Set Quality     : NORMAL
 Threshold Quality   : NORMAL
 Integration Quality : NORMAL
 Fit Generation Method : AUTO
 Response Quality    : DEFAULT
 Is Range Separated  :  F
 
 RIHartreeFock Dependency: number of modified vectors:          16



 =====
 S C F  ***  ScaSCF  ***
 =====
  
 Initial density matrix is calculated as sum of fragments

 CYCLE    1
 SCF Error: norm([F,P])=    251.477024875405, max([F,P])=     42.458706311511
 orbitals (Q,E):
 ---------------
 A1/2 :351...370     ( 1.00    -0.4171)  ( 1.00    -0.4171)  ( 1.00    -0.4138)  ( 1.00    -0.4138)
                     ( 1.00    -0.4126)  ( 1.00    -0.4126)  ( 1.00    -0.4100)  ( 1.00    -0.4100)
                     ( 1.00    -0.4096)  ( 1.00    -0.4096)  ( 0.00    -0.1636)  ( 0.00    -0.1636)
                     ( 0.00    -0.1625)  ( 0.00    -0.1625)  ( 0.00    -0.1604)  ( 0.00    -0.1604)
                     ( 0.00    -0.1596)  ( 0.00    -0.1596)  ( 0.00    -0.1593)  ( 0.00    -0.1593)

 CYCLE    2
   MIX coefficients:  0.8000  0.2000
 SCF Error: norm([F,P])=      2.460528186371, max([F,P])=      0.158028969450
 orbitals (Q,E):
 ---------------
 A1/2 :351...370     ( 1.00    -0.3828)  ( 1.00    -0.3828)  ( 1.00    -0.3795)  ( 1.00    -0.3795)
                     ( 1.00    -0.3758)  ( 1.00    -0.3758)  ( 1.00    -0.3741)  ( 1.00    -0.3741)
                     ( 1.00    -0.3724)  ( 1.00    -0.3724)  ( 0.00    -0.2028)  ( 0.00    -0.2028)
                     ( 0.00    -0.2025)  ( 0.00    -0.2025)  ( 0.00    -0.2012)  ( 0.00    -0.2012)
                     ( 0.00    -0.2011)  ( 0.00    -0.2011)  ( 0.00    -0.2002)  ( 0.00    -0.2002)

 CYCLE    3
  SDIIS (wt  0.000): -0.8180  1.8180
 A-DIIS (wt  1.000):  0.0000  1.0000
  DIIS coefficients:  0.0000  1.0000
 SCF Error: norm([F,P])=      1.180610627380, max([F,P])=      0.061310034688
 orbitals (Q,E):
 ---------------
 A1/2 :351...370     ( 1.00    -0.3274)  ( 1.00    -0.3274)  ( 1.00    -0.3265)  ( 1.00    -0.3265)
                     ( 1.00    -0.3234)  ( 1.00    -0.3234)  ( 1.00    -0.3226)  ( 1.00    -0.3226)
                     ( 1.00    -0.3197)  ( 1.00    -0.3197)  ( 0.00    -0.3188)  ( 0.00    -0.3188)
                     ( 0.00    -0.3178)  ( 0.00    -0.3178)  ( 0.00    -0.3157)  ( 0.00    -0.3157)
                     ( 0.00    -0.3110)  ( 0.00    -0.3110)  ( 0.00    -0.3015)  ( 0.00    -0.3015)

 CYCLE    4
  SDIIS (wt  0.000): -0.7831  1.7779  0.0052
 A-DIIS (wt  1.000):  0.0000  0.9875  0.0125
  DIIS coefficients:  0.0000  0.9875  0.0125
 SCF Error: norm([F,P])=     24.311569086851, max([F,P])=      2.083823874489
 orbitals (Q,E):
 ---------------
 A1/2 :351...370     ( 1.00    -0.2935)  ( 1.00    -0.2935)  ( 1.00    -0.2922)  ( 1.00    -0.2922)
                     ( 1.00    -0.2906)  ( 1.00    -0.2906)  ( 1.00    -0.2868)  ( 1.00    -0.2868)
                     ( 1.00    -0.2858)  ( 1.00    -0.2858)  ( 0.00    -0.2565)  ( 0.00    -0.2565)
                     ( 0.00    -0.2550)  ( 0.00    -0.2550)  ( 0.00    -0.2538)  ( 0.00    -0.2538)
                     ( 0.00    -0.2522)  ( 0.00    -0.2522)  ( 0.00    -0.2513)  ( 0.00    -0.2513)

 CYCLE    5
  SDIIS (wt  0.000): -0.6529  1.5942 -0.0031  0.0618
 A-DIIS (wt  1.000):  0.0000  0.8707  0.0000  0.1293
  DIIS coefficients:  0.0000  0.8707  0.0000  0.1293
 SCF Error: norm([F,P])=      5.034746181186, max([F,P])=      0.616010008689
 orbitals (Q,E):
 ---------------
 A1/2 :351...370     ( 1.00    -0.3018)  ( 1.00    -0.3018)  ( 1.00    -0.3004)  ( 1.00    -0.3004)
                     ( 1.00    -0.2942)  ( 1.00    -0.2942)  ( 1.00    -0.2919)  ( 1.00    -0.2919)
                     ( 1.00    -0.2797)  ( 1.00    -0.2797)  ( 0.00    -0.1626)  ( 0.00    -0.1626)
                     ( 0.00    -0.1619)  ( 0.00    -0.1619)  ( 0.00    -0.1596)  ( 0.00    -0.1596)
                     ( 0.00    -0.1509)  ( 0.00    -0.1509)  ( 0.00    -0.1504)  ( 0.00    -0.1504)

 CYCLE    6
  SDIIS (wt  0.418): -0.0529  0.5760  0.0014  0.0350  0.4405
 A-DIIS (wt  0.582):  0.0000  0.4241  0.0000  0.0000  0.5759
  DIIS coefficients: -0.0221  0.4876  0.0006  0.0146  0.5193
 SCF Error: norm([F,P])=      1.007259067506, max([F,P])=      0.058587814758
 orbitals (Q,E):
 ---------------
 A1/2 :351...370     ( 1.00    -0.3342)  ( 1.00    -0.3342)  ( 1.00    -0.3320)  ( 1.00    -0.3320)
                     ( 1.00    -0.3314)  ( 1.00    -0.3314)  ( 1.00    -0.3254)  ( 1.00    -0.3254)
                     ( 1.00    -0.3203)  ( 1.00    -0.3203)  ( 0.00    -0.2337)  ( 0.00    -0.2337)
                     ( 0.00    -0.2323)  ( 0.00    -0.2323)  ( 0.00    -0.2309)  ( 0.00    -0.2309)
                     ( 0.00    -0.2258)  ( 0.00    -0.2258)  ( 0.00    -0.2232)  ( 0.00    -0.2232)

 CYCLE    7
  SDIIS (wt  0.418):  0.1631 -0.0652  0.0009 -0.0515  0.4450  0.5077
 A-DIIS (wt  0.582):  0.0000  0.2065  0.0000  0.0000  0.2382  0.5553
  DIIS coefficients:  0.0682  0.0929  0.0004 -0.0216  0.3247  0.5354
 SCF Error: norm([F,P])=      0.690425230936, max([F,P])=      0.071517020447
 orbitals (Q,E):
 ---------------
 A1/2 :351...370     ( 1.00    -0.3356)  ( 1.00    -0.3356)  ( 1.00    -0.3330)  ( 1.00    -0.3330)
                     ( 1.00    -0.3304)  ( 1.00    -0.3304)  ( 1.00    -0.3256)  ( 1.00    -0.3256)
                     ( 1.00    -0.3199)  ( 1.00    -0.3199)  ( 0.00    -0.1347)  ( 0.00    -0.1347)
                     ( 0.00    -0.1340)  ( 0.00    -0.1340)  ( 0.00    -0.1326)  ( 0.00    -0.1326)
                     ( 0.00    -0.1241)  ( 0.00    -0.1241)  ( 0.00    -0.1234)  ( 0.00    -0.1234)

 CYCLE    8
  SDIIS (wt  0.624): -0.0351  0.0603  0.0003 -0.0205  0.0732  0.4261  0.4957
 A-DIIS (wt  0.376):  0.0000  0.0000  0.0000  0.0000  0.0000  0.3626  0.6374
  DIIS coefficients: -0.0219  0.0376  0.0002 -0.0128  0.0457  0.4022  0.5489
 SCF Error: norm([F,P])=      0.437601094318, max([F,P])=      0.038215552103
 orbitals (Q,E):
 ---------------
 A1/2 :351...370     ( 1.00    -0.3368)  ( 1.00    -0.3368)  ( 1.00    -0.3349)  ( 1.00    -0.3349)
                     ( 1.00    -0.3316)  ( 1.00    -0.3316)  ( 1.00    -0.3274)  ( 1.00    -0.3274)
                     ( 1.00    -0.3197)  ( 1.00    -0.3197)  ( 0.00    -0.1869)  ( 0.00    -0.1869)
                     ( 0.00    -0.1861)  ( 0.00    -0.1861)  ( 0.00    -0.1847)  ( 0.00    -0.1847)
                     ( 0.00    -0.1777)  ( 0.00    -0.1777)  ( 0.00    -0.1761)  ( 0.00    -0.1761)

 CYCLE    9
  SDIIS (wt  0.950): -0.0218  0.0254  0.0002 -0.0088 -0.0007  0.1807  0.2840  0.5409
 A-DIIS (wt  0.050):  0.0000  0.0000  0.0000  0.0000  0.0000  0.0000  0.0000  1.0000
  DIIS coefficients: -0.0207  0.0242  0.0002 -0.0083 -0.0007  0.1717  0.2699  0.5637
 SCF Error: norm([F,P])=      0.059226528534, max([F,P])=      0.005906853549
 orbitals (Q,E):
 ---------------
 A1/2 :351...370     ( 1.00    -0.3360)  ( 1.00    -0.3360)  ( 1.00    -0.3338)  ( 1.00    -0.3338)
                     ( 1.00    -0.3315)  ( 1.00    -0.3315)  ( 1.00    -0.3267)  ( 1.00    -0.3267)
                     ( 1.00    -0.3203)  ( 1.00    -0.3203)  ( 0.00    -0.1850)  ( 0.00    -0.1850)
                     ( 0.00    -0.1844)  ( 0.00    -0.1844)  ( 0.00    -0.1828)  ( 0.00    -0.1828)
                     ( 0.00    -0.1745)  ( 0.00    -0.1745)  ( 0.00    -0.1740)  ( 0.00    -0.1740)

 CYCLE   10
  SDIIS (wt  0.977): -0.0107  0.0097  0.0001 -0.0033 -0.0094  0.0693  0.1166  0.3966  0.4311
 A-DIIS (wt  0.023):  0.0000  0.0000  0.0000  0.0000  0.0000  0.0000  0.0000  0.1973  0.8027
  DIIS coefficients: -0.0104  0.0095  0.0001 -0.0032 -0.0092  0.0677  0.1140  0.3921  0.4395
 SCF Error: norm([F,P])=      0.025387002204, max([F,P])=      0.003235080802
 orbitals (Q,E):
 ---------------
 A1/2 :351...370     ( 1.00    -0.3360)  ( 1.00    -0.3360)  ( 1.00    -0.3340)  ( 1.00    -0.3340)
                     ( 1.00    -0.3313)  ( 1.00    -0.3313)  ( 1.00    -0.3267)  ( 1.00    -0.3267)
                     ( 1.00    -0.3200)  ( 1.00    -0.3200)  ( 0.00    -0.1824)  ( 0.00    -0.1824)
                     ( 0.00    -0.1814)  ( 0.00    -0.1814)  ( 0.00    -0.1801)  ( 0.00    -0.1801)
                     ( 0.00    -0.1734)  ( 0.00    -0.1734)  ( 0.00    -0.1716)  ( 0.00    -0.1716)

 CYCLE   11
  SDIIS (wt  0.996): -0.0037  0.0018 -0.0000 -0.0008 -0.0064  0.0202  0.0336  0.1958  0.3695  0.3899
 A-DIIS (wt  0.004):  0.0000  0.0000  0.0000  0.0000  0.0000  0.0000  0.0000  0.0000  0.1964  0.8036
  DIIS coefficients: -0.0037  0.0018 -0.0000 -0.0008 -0.0064  0.0202  0.0334  0.1950  0.3689  0.3915
 SCF Error: norm([F,P])=      0.012493520380, max([F,P])=      0.001384499048
 orbitals (Q,E):
 ---------------
 A1/2 :351...370     ( 1.00    -0.3362)  ( 1.00    -0.3362)  ( 1.00    -0.3341)  ( 1.00    -0.3341)
                     ( 1.00    -0.3315)  ( 1.00    -0.3315)  ( 1.00    -0.3267)  ( 1.00    -0.3267)
                     ( 1.00    -0.3199)  ( 1.00    -0.3199)  ( 0.00    -0.1839)  ( 0.00    -0.1839)
                     ( 0.00    -0.1832)  ( 0.00    -0.1832)  ( 0.00    -0.1818)  ( 0.00    -0.1818)
                     ( 0.00    -0.1736)  ( 0.00    -0.1736)  ( 0.00    -0.1732)  ( 0.00    -0.1732)

 CYCLE   12
  SDIIS (wt  1.000): -0.0012  0.0000 -0.0000 -0.0018  0.0011 -0.0011  0.0592  0.1944  0.3046  0.4448
  DIIS coefficients: -0.0012  0.0000 -0.0000 -0.0018  0.0011 -0.0011  0.0592  0.1944  0.3046  0.4448
 SCF Error: norm([F,P])=      0.004572622235, max([F,P])=      0.000444461758
 orbitals (Q,E):
 ---------------
 A1/2 :351...370     ( 1.00    -0.3362)  ( 1.00    -0.3362)  ( 1.00    -0.3341)  ( 1.00    -0.3341)
                     ( 1.00    -0.3315)  ( 1.00    -0.3315)  ( 1.00    -0.3268)  ( 1.00    -0.3268)
                     ( 1.00    -0.3201)  ( 1.00    -0.3201)  ( 0.00    -0.1840)  ( 0.00    -0.1840)
                     ( 0.00    -0.1833)  ( 0.00    -0.1833)  ( 0.00    -0.1819)  ( 0.00    -0.1819)
                     ( 0.00    -0.1740)  ( 0.00    -0.1740)  ( 0.00    -0.1733)  ( 0.00    -0.1733)

 CYCLE   13
  SDIIS (wt  1.000):  0.0000  0.0000 -0.0000 -0.0001 -0.0025  0.0104  0.0529  0.0982  0.2429  0.5982
  DIIS coefficients:  0.0000  0.0000 -0.0000 -0.0001 -0.0025  0.0104  0.0529  0.0982  0.2429  0.5982
 SCF Error: norm([F,P])=      0.001150832953, max([F,P])=      0.000081962364
 orbitals (Q,E):
 ---------------
 A1/2 :351...370     ( 1.00    -0.3362)  ( 1.00    -0.3362)  ( 1.00    -0.3341)  ( 1.00    -0.3341)
                     ( 1.00    -0.3315)  ( 1.00    -0.3315)  ( 1.00    -0.3268)  ( 1.00    -0.3268)
                     ( 1.00    -0.3200)  ( 1.00    -0.3200)  ( 0.00    -0.1840)  ( 0.00    -0.1840)
                     ( 0.00    -0.1833)  ( 0.00    -0.1833)  ( 0.00    -0.1819)  ( 0.00    -0.1819)
                     ( 0.00    -0.1739)  ( 0.00    -0.1739)  ( 0.00    -0.1733)  ( 0.00    -0.1733)

 CYCLE   14
  SDIIS (wt  1.000):  0.0000  0.0001 -0.0002 -0.0018 -0.0017  0.0114  0.0304  0.1184  0.4219  0.4214
  DIIS coefficients:  0.0000  0.0001 -0.0002 -0.0018 -0.0017  0.0114  0.0304  0.1184  0.4219  0.4214
 SCF Error: norm([F,P])=      0.000744774610, max([F,P])=      0.000064942069
 orbitals (Q,E):
 ---------------
 A1/2 :351...370     ( 1.00    -0.3362)  ( 1.00    -0.3362)  ( 1.00    -0.3341)  ( 1.00    -0.3341)
                     ( 1.00    -0.3315)  ( 1.00    -0.3315)  ( 1.00    -0.3268)  ( 1.00    -0.3268)
                     ( 1.00    -0.3200)  ( 1.00    -0.3200)  ( 0.00    -0.1840)  ( 0.00    -0.1840)
                     ( 0.00    -0.1833)  ( 0.00    -0.1833)  ( 0.00    -0.1818)  ( 0.00    -0.1818)
                     ( 0.00    -0.1739)  ( 0.00    -0.1739)  ( 0.00    -0.1733)  ( 0.00    -0.1733)

 CYCLE   15
  SDIIS (wt  1.000):  0.0001  0.0000 -0.0005 -0.0013 -0.0003  0.0039  0.0295  0.1461  0.2201  0.6024
  DIIS coefficients:  0.0001  0.0000 -0.0005 -0.0013 -0.0003  0.0039  0.0295  0.1461  0.2201  0.6024
 SCF Error: norm([F,P])=      0.000175077338, max([F,P])=      0.000014698230
 orbitals (Q,E):
 ---------------
 A1/2 :351...370     ( 1.00    -0.3362)  ( 1.00    -0.3362)  ( 1.00    -0.3341)  ( 1.00    -0.3341)
                     ( 1.00    -0.3315)  ( 1.00    -0.3315)  ( 1.00    -0.3268)  ( 1.00    -0.3268)
                     ( 1.00    -0.3200)  ( 1.00    -0.3200)  ( 0.00    -0.1840)  ( 0.00    -0.1840)
                     ( 0.00    -0.1833)  ( 0.00    -0.1833)  ( 0.00    -0.1819)  ( 0.00    -0.1819)
                     ( 0.00    -0.1739)  ( 0.00    -0.1739)  ( 0.00    -0.1733)  ( 0.00    -0.1733)

 CYCLE   16
  SDIIS (wt  1.000): -0.0000  0.0000 -0.0005 -0.0038 -0.0061 -0.0165 -0.0225  0.0289  0.3267  0.6938
  DIIS coefficients: -0.0000  0.0000 -0.0005 -0.0038 -0.0061 -0.0165 -0.0225  0.0289  0.3267  0.6938
 SCF Error: norm([F,P])=      0.000085357006, max([F,P])=      0.000010202921
 orbitals (Q,E):
 ---------------
 A1/2 :351...370     ( 1.00    -0.3362)  ( 1.00    -0.3362)  ( 1.00    -0.3341)  ( 1.00    -0.3341)
                     ( 1.00    -0.3315)  ( 1.00    -0.3315)  ( 1.00    -0.3268)  ( 1.00    -0.3268)
                     ( 1.00    -0.3200)  ( 1.00    -0.3200)  ( 0.00    -0.1840)  ( 0.00    -0.1840)
                     ( 0.00    -0.1833)  ( 0.00    -0.1833)  ( 0.00    -0.1819)  ( 0.00    -0.1819)
                     ( 0.00    -0.1739)  ( 0.00    -0.1739)  ( 0.00    -0.1733)  ( 0.00    -0.1733)

 CYCLE   17
  SDIIS (wt  1.000):  0.0001 -0.0005 -0.0028 -0.0046 -0.0145 -0.0323 -0.0060  0.1427  0.4827  0.4352
  DIIS coefficients:  0.0001 -0.0005 -0.0028 -0.0046 -0.0145 -0.0323 -0.0060  0.1427  0.4827  0.4352
 SCF Error: norm([F,P])=      0.000044226255, max([F,P])=      0.000003505203
 orbitals (Q,E):
 ---------------
 A1/2 :351...370     ( 1.00    -0.3362)  ( 1.00    -0.3362)  ( 1.00    -0.3341)  ( 1.00    -0.3341)
                     ( 1.00    -0.3315)  ( 1.00    -0.3315)  ( 1.00    -0.3268)  ( 1.00    -0.3268)
                     ( 1.00    -0.3200)  ( 1.00    -0.3200)  ( 0.00    -0.1840)  ( 0.00    -0.1840)
                     ( 0.00    -0.1833)  ( 0.00    -0.1833)  ( 0.00    -0.1819)  ( 0.00    -0.1819)
                     ( 0.00    -0.1739)  ( 0.00    -0.1739)  ( 0.00    -0.1733)  ( 0.00    -0.1733)

 CYCLE   18
  SDIIS (wt  1.000): -0.0000  0.0002  0.0002 -0.0009 -0.0061 -0.0045  0.0125  0.1026  0.1788  0.7173
  DIIS coefficients: -0.0000  0.0002  0.0002 -0.0009 -0.0061 -0.0045  0.0125  0.1026  0.1788  0.7173
 SCF Error: norm([F,P])=      0.000014285151, max([F,P])=      0.000001459898
 orbitals (Q,E):
 ---------------
 A1/2 :351...370     ( 1.00    -0.3362)  ( 1.00    -0.3362)  ( 1.00    -0.3341)  ( 1.00    -0.3341)
                     ( 1.00    -0.3315)  ( 1.00    -0.3315)  ( 1.00    -0.3268)  ( 1.00    -0.3268)
                     ( 1.00    -0.3200)  ( 1.00    -0.3200)  ( 0.00    -0.1840)  ( 0.00    -0.1840)
                     ( 0.00    -0.1833)  ( 0.00    -0.1833)  ( 0.00    -0.1819)  ( 0.00    -0.1819)
                     ( 0.00    -0.1739)  ( 0.00    -0.1739)  ( 0.00    -0.1733)  ( 0.00    -0.1733)

 CYCLE   19
  SDIIS (wt  1.000):  0.0003  0.0006  0.0015  0.0008 -0.0026 -0.0218 -0.0318  0.0195  0.4452  0.5883
  DIIS coefficients:  0.0003  0.0006  0.0015  0.0008 -0.0026 -0.0218 -0.0318  0.0195  0.4452  0.5883
 SCF Error: norm([F,P])=      0.000007040060, max([F,P])=      0.000000756657
 orbitals (Q,E):
 ---------------
 A1/2 :351...370     ( 1.00    -0.3362)  ( 1.00    -0.3362)  ( 1.00    -0.3341)  ( 1.00    -0.3341)
                     ( 1.00    -0.3315)  ( 1.00    -0.3315)  ( 1.00    -0.3268)  ( 1.00    -0.3268)
                     ( 1.00    -0.3200)  ( 1.00    -0.3200)  ( 0.00    -0.1840)  ( 0.00    -0.1840)
                     ( 0.00    -0.1833)  ( 0.00    -0.1833)  ( 0.00    -0.1819)  ( 0.00    -0.1819)
                     ( 0.00    -0.1739)  ( 0.00    -0.1739)  ( 0.00    -0.1733)  ( 0.00    -0.1733)

 SCF CONVERGED

 CYCLE   20
1
 ***************************************************************************************************



                                                *******************
                                                *  R E S U L T S  *
                                                *******************
  
  
 Hartree-Fock exchange energy:   -657.263291874860     
 *** Using FIT density in Focky
  SDIIS (wt  1.000): -0.0000 -0.0002 -0.0007 -0.0004 -0.0012  0.0055  0.0084  0.0630  0.1976  0.7279
  DIIS coefficients: -0.0000 -0.0002 -0.0007 -0.0004 -0.0012  0.0055  0.0084  0.0630  0.1976  0.7279
 SCF Error: norm([F,P])=      0.000002809752, max([F,P])=      0.000000196230

 Orbital Energies, per Irrep and Spin:
 ======================================
                        Occup              E (au)              E (eV)       Diff (eV) with prev. cycle
                        -----      --------------------        ------       --------------------------
 A1/2
             351        1.000     -0.33616754874642E+00        -9.148              -1.89E-06
             352        1.000     -0.33616754873792E+00        -9.148              -1.89E-06
             353        1.000     -0.33409107718707E+00        -9.091              -1.02E-07
             354        1.000     -0.33409107718425E+00        -9.091              -1.02E-07
             355        1.000     -0.33149901915903E+00        -9.021              -1.62E-06
             356        1.000     -0.33149901915126E+00        -9.021              -1.62E-06
             357        1.000     -0.32676703262577E+00        -8.892              -9.39E-07
             358        1.000     -0.32676703261961E+00        -8.892              -9.39E-07
             359        1.000     -0.32002809790508E+00        -8.708               4.38E-07
             360        1.000     -0.32002809790023E+00        -8.708               4.38E-07
             361        0.000     -0.18404768431462E+00        -5.008
             362        0.000     -0.18404768431114E+00        -5.008
             363        0.000     -0.18328591372602E+00        -4.987
             364        0.000     -0.18328591372226E+00        -4.987
             365        0.000     -0.18185661846986E+00        -4.949
             366        0.000     -0.18185661846403E+00        -4.949
             367        0.000     -0.17392712676952E+00        -4.733
             368        0.000     -0.17392712676364E+00        -4.733
             369        0.000     -0.17330250116349E+00        -4.716
             370        0.000     -0.17330250115993E+00        -4.716
  
 HOMO :      360 A1/2             -0.32002809790023E+00
 LUMO :      361 A1/2             -0.18404768431462E+00
  


 All Electron Calculation, thus no Orbital Energies of the Core Orbitals are calculated


 Fit test: (difference of exact and fit density, squared integrated, result summed over spins)
         Sum-of-Fragments:                             0.00000003848101
         Orthogonalized Fragments:                     0.00141340187785
         SCF:                                          0.00155589283904



 ==========================
 Electron Density at Nuclei
 ==========================
  
 The electron density is calculated at points on a small sphere around the center of a nucleus.
 The printed electron density is the average electron density on these points.
 The radius of the sphere is the printed approximate finite nuclear radius.
 Note: density is calculated in the Dirac picture

         Atom        Nuclear Radius (Angstrom)             Electron Density (a.u.)
         ----        -------------------------             -----------------------
     1)   O                 0.0000345546                              312.90167
     2)   Ce                0.0000633998                           280671.25587
     3)   O                 0.0000345546                              312.29137
     4)   O                 0.0000345546                              312.97020
     5)   N                 0.0000333706                              205.30567
     6)   O                 0.0000345546                              313.04647
     7)   O                 0.0000345546                              312.89491
     8)   O                 0.0000345546                              312.27267
     9)   O                 0.0000345546                              312.96941
    10)   N                 0.0000333706                              205.30728
    11)   O                 0.0000345546                              313.03612
    12)   O                 0.0000345546                              312.90081
    13)   O                 0.0000345546                              312.32430
    14)   O                 0.0000345546                              312.90886
    15)   N                 0.0000333706                              205.29793
    16)   O                 0.0000345546                              313.05914
    17)   O                 0.0000345546                              312.91605
    18)   Ce                0.0000633998                           280669.74472
    19)   O                 0.0000345546                              312.28319
    20)   O                 0.0000345546                              312.97110
    21)   N                 0.0000333706                              205.29992
    22)   O                 0.0000345546                              313.03871
    23)   O                 0.0000345546                              312.87790
    24)   O                 0.0000345546                              312.30798
    25)   O                 0.0000345546                              312.99178
    26)   N                 0.0000333706                              205.31736
    27)   O                 0.0000345546                              313.01307
    28)   O                 0.0000345546                              312.96608
    29)   O                 0.0000345546                              312.97275
    30)   N                 0.0000333706                              205.30997
    31)   O                 0.0000345546                              313.05440
    32)   O                 0.0000345546                              312.89949
    33)   H                 0.0000181514                                0.44633
    34)   H                 0.0000181514                                0.45965
    35)   H                 0.0000181514                                0.46428
    36)   H                 0.0000181514                                0.46008
    37)   H                 0.0000181514                                0.46060
    38)   H                 0.0000181514                                0.46179
    39)   H                 0.0000181514                                0.45988
    40)   H                 0.0000181514                                0.46162
    41)   H                 0.0000181514                                0.46124
    42)   H                 0.0000181514                                0.46176



 =======================================
 M U L L I K E N   P O P U L A T I O N S
 =======================================
  
 The survey below gives for each atom:
 a) the total charge (Z minus electrons)
 b) the net spin polarization (nr of electrons spin-A minus spin-B)
 c) for each spin the atomic electron valence density (integrated) per L-value.

 Atom              Charge    Spin density          S         P         D         F
 ----              ------    ------------       ------    ------    ------    ------
 1 O              -0.8518                       3.8959    4.9269    0.0239    0.0050
 2 Ce              2.2278                      10.0117   23.9126   21.0549    0.7930
 3 O              -0.4907                       3.7274    4.7273    0.0326    0.0034
 4 O              -0.5674                       3.8714    4.6200    0.0678    0.0083
 5 N               0.9795                       3.0159    2.6895    0.2958    0.0193
 6 O              -0.4162                       3.8625    4.4719    0.0723    0.0096
 7 O              -0.6004                       3.8592    4.6668    0.0661    0.0083
 8 O              -0.4897                       3.7232    4.7309    0.0321    0.0034
 9 O              -0.5558                       3.8661    4.6130    0.0684    0.0084
 10 N              0.9626                       3.0203    2.7021    0.2958    0.0193
 11 O             -0.4248                       3.8607    4.4823    0.0722    0.0096
 12 O             -0.6244                       3.8716    4.6779    0.0669    0.0080
 13 O             -0.4445                       3.7301    4.6777    0.0333    0.0034
 14 O             -0.5922                       3.8638    4.6539    0.0663    0.0083
 15 N              0.9867                       3.0129    2.6843    0.2967    0.0193
 16 O             -0.4099                       3.8623    4.4655    0.0725    0.0096
 17 O             -0.5753                       3.8608    4.6391    0.0669    0.0085
 18 Ce             2.1139                      10.0003   23.9783   21.1011    0.8063
 19 O             -0.4813                       3.7375    4.7086    0.0317    0.0035
 20 O             -0.5475                       3.8677    4.6033    0.0680    0.0085
 21 N              0.9854                       3.0124    2.6874    0.2954    0.0193
 22 O             -0.4237                       3.8623    4.4798    0.0720    0.0096
 23 O             -0.6004                       3.8593    4.6676    0.0653    0.0082
 24 O             -0.4552                       3.7149    4.7047    0.0325    0.0031
 25 O             -0.5524                       3.8691    4.6068    0.0682    0.0082
 26 N              0.9392                       3.0236    2.7207    0.2973    0.0193
 27 O             -0.4355                       3.8577    4.4972    0.0712    0.0095
 28 O             -0.5625                       3.8673    4.6192    0.0679    0.0082
 29 O             -0.5589                       3.8677    4.6148    0.0682    0.0082
 30 N              0.9640                       3.0206    2.6990    0.2971    0.0193
 31 O             -0.4071                       3.8608    4.4645    0.0722    0.0096
 32 O             -0.5998                       3.8596    4.6656    0.0664    0.0082
 33 H              0.2826                       0.5701    0.1344    0.0129    0.0000
 34 H              0.2604                       0.6197    0.1074    0.0124    0.0000
 35 H              0.2151                       0.6586    0.1137    0.0125    0.0000
 36 H              0.2511                       0.6272    0.1092    0.0125    0.0000
 37 H              0.2350                       0.6372    0.1150    0.0128    0.0000
 38 H              0.2321                       0.6425    0.1128    0.0127    0.0000
 39 H              0.2619                       0.6186    0.1070    0.0125    0.0000
 40 H              0.2545                       0.6274    0.1058    0.0122    0.0000
 41 H              0.2639                       0.6194    0.1044    0.0123    0.0000
 42 H              0.2514                       0.6304    0.1059    0.0122    0.0000

 Populations of individual BAS functions
 ----------------------------------------
 1 O            0.6749  1.2741  0.0243  0.9941  0.9286  0.2679  0.2672  0.2651  0.8625  0.8445
                0.8244  0.5573  0.5793  0.4587 -0.0130  0.0008  0.0039 -0.0110  0.0034  0.0398
               -0.0105 -0.0038 -0.0092 -0.0029  0.0001  0.0150 -0.0095 -0.0088  0.0148  0.0199
 3 O            0.6889  1.2609  0.0230  0.9947  0.7599  0.2413  0.2721  0.3013  0.8987  0.9272
                1.0071  0.1819  0.4326  0.4650  0.0144  0.0174  0.0036  0.0018  0.0044 -0.0090
                0.0021  0.0077  0.0049  0.0040  0.0007 -0.0055 -0.0007  0.0024 -0.0057 -0.0066
 4 O            0.6745  1.2792  0.0181  1.0168  0.8828  0.2980  0.2804  0.2157  0.9509  0.8947
                0.7363  0.4911  0.4862  0.2667  0.0046  0.0026  0.0150 -0.0035  0.0180  0.0310
               -0.0046 -0.0011 -0.0072 -0.0035  0.0005  0.0104 -0.0088 -0.0084  0.0122  0.0187
 6 O            0.6681  1.2931  0.0088  1.0354  0.8571  0.2287  0.2485  0.3107  0.7862  0.8405
                0.9937  0.2358  0.3690  0.4588  0.0291  0.0204  0.0188  0.0009  0.0045 -0.0014
                0.0172  0.0115  0.0125 -0.0068  0.0013 -0.0067 -0.0063 -0.0014 -0.0031 -0.0086
 7 O            0.6750  1.2786  0.0183  1.0130  0.8743  0.2449  0.2739  0.2807  0.8010  0.8721
                0.8999  0.3734  0.4772  0.4438  0.0177  0.0117  0.0229 -0.0015  0.0106  0.0047
                0.0059  0.0062  0.0072 -0.0050  0.0015  0.0018 -0.0073 -0.0038  0.0024 -0.0007
 8 O            0.6893  1.2605  0.0230  0.9941  0.7562  0.2355  0.2844  0.2956  0.8854  0.9762
                0.9725  0.1581  0.4309  0.4922  0.0194  0.0088  0.0111 -0.0017  0.0061 -0.0115
                0.0041  0.0063  0.0085 -0.0013  0.0010 -0.0026 -0.0031  0.0010 -0.0022 -0.0083
 9 O            0.6750  1.2790  0.0177  1.0185  0.8760  0.2746  0.2552  0.2640  0.8951  0.8380
                0.8553  0.4106  0.3825  0.4376  0.0056  0.0221  0.0128  0.0141  0.0119  0.0018
               -0.0002  0.0027  0.0023  0.0051  0.0017 -0.0022  0.0027  0.0041 -0.0028 -0.0049
 11 O           0.6688  1.2917  0.0096  1.0337  0.8569  0.3106  0.2229  0.2560  0.9939  0.7701
                0.8534  0.4638  0.2247  0.3870 -0.0026  0.0176  0.0039  0.0317  0.0204  0.0012
               -0.0096 -0.0082 -0.0038  0.0131  0.0010 -0.0011  0.0191  0.0123 -0.0071 -0.0063
 12 O           0.6739  1.2789  0.0195  1.0085  0.8908  0.2233  0.2931  0.2834  0.7569  0.9278
                0.8815  0.2899  0.4966  0.5255  0.0256  0.0164  0.0159  0.0041  0.0043  0.0005
                0.0147  0.0092  0.0095 -0.0052  0.0010 -0.0065 -0.0046 -0.0012 -0.0024 -0.0064
 13 O           0.6890  1.2610  0.0229  0.9969  0.7604  0.3057  0.2447  0.2612  1.0148  0.9086
                0.9270  0.4688  0.1977  0.3492 -0.0147  0.0072  0.0038  0.0165  0.0100  0.0105
               -0.0094 -0.0051 -0.0071  0.0068  0.0002  0.0037  0.0042  0.0031  0.0023  0.0047
 14 O           0.6746  1.2791  0.0182  1.0131  0.8787  0.2854  0.2409  0.2707  0.9170  0.7954
                0.8677  0.4634  0.3466  0.4668  0.0083  0.0166  0.0058  0.0180  0.0173  0.0004
               -0.0022 -0.0024 -0.0000  0.0069  0.0014 -0.0025  0.0093  0.0075 -0.0039 -0.0058
 16 O           0.6684  1.2931  0.0083  1.0370  0.8555  0.2185  0.3119  0.2566  0.7598  0.9990
                0.8631  0.2020  0.4735  0.3812  0.0355  0.0173  0.0231 -0.0037  0.0009 -0.0007
                0.0230  0.0150  0.0149 -0.0106  0.0002 -0.0088 -0.0108 -0.0045 -0.0016 -0.0073
 17 O           0.6749  1.2790  0.0179  1.0145  0.8745  0.2591  0.2596  0.2782  0.8451  0.8456
                0.8947  0.3967  0.3961  0.4642  0.0137  0.0228  0.0106  0.0118  0.0116 -0.0036
                0.0024  0.0042  0.0047  0.0051  0.0017 -0.0049  0.0042  0.0050 -0.0055 -0.0084
 19 O           0.6871  1.2638  0.0219  0.9931  0.7717  0.2424  0.2912  0.2782  0.9054  0.9755
                0.9740  0.1840  0.4694  0.3885  0.0160  0.0119  0.0074 -0.0114  0.0054  0.0023
                0.0029  0.0077  0.0042 -0.0015  0.0006 -0.0005 -0.0077 -0.0027  0.0014 -0.0010
 20 O           0.6752  1.2786  0.0178  1.0184  0.8776  0.3024  0.2751  0.2157  0.9646  0.8887
                0.7367  0.4989  0.4565  0.2646  0.0049  0.0022  0.0135 -0.0046  0.0198  0.0322
               -0.0045 -0.0014 -0.0079 -0.0039  0.0004  0.0107 -0.0095 -0.0085  0.0134  0.0197
 22 O           0.6677  1.2937  0.0086  1.0350  0.8573  0.2328  0.2459  0.3097  0.7956  0.8333
                0.9892  0.2458  0.3689  0.4588  0.0279  0.0210  0.0197  0.0003  0.0041 -0.0010
                0.0168  0.0116  0.0125 -0.0071  0.0012 -0.0064 -0.0066 -0.0016 -0.0028 -0.0082
 23 O           0.6739  1.2805  0.0174  1.0122  0.8753  0.2346  0.2830  0.2803  0.7816  0.8999
                0.9012  0.3388  0.5039  0.4442  0.0227  0.0108  0.0246 -0.0062  0.0088  0.0045
                0.0092  0.0088  0.0094 -0.0079  0.0013  0.0013 -0.0104 -0.0060  0.0030 -0.0006
 24 O           0.6884  1.2625  0.0217  0.9993  0.7430  0.2888  0.2697  0.2558  0.9776  0.9469
                0.9030  0.4028  0.3746  0.2854 -0.0064  0.0120  0.0016  0.0047  0.0030  0.0176
               -0.0057 -0.0006 -0.0056  0.0054  0.0003  0.0014  0.0010 -0.0013  0.0002  0.0079
 25 O           0.6743  1.2801  0.0172  1.0198  0.8777  0.2492  0.2680  0.2751  0.8295  0.8733
                0.8866  0.3401  0.4120  0.4729  0.0149  0.0248  0.0148  0.0113  0.0064 -0.0041
                0.0074  0.0077  0.0073  0.0020  0.0014 -0.0066  0.0002  0.0029 -0.0053 -0.0089
 27 O           0.6684  1.2924  0.0093  1.0326  0.8550  0.3243  0.2163  0.2505  1.0243  0.7515
                0.8379  0.5032  0.2021  0.3870 -0.0051  0.0156  0.0007  0.0364  0.0235  0.0000
               -0.0121 -0.0115 -0.0052  0.0154  0.0001 -0.0006  0.0239  0.0153 -0.0089 -0.0068
 28 O           0.6738  1.2806  0.0172  1.0176  0.8781  0.2394  0.2779  0.2772  0.8033  0.8995
                0.8831  0.3151  0.4373  0.4864  0.0188  0.0220  0.0162  0.0094  0.0051 -0.0036
                0.0104  0.0086  0.0086 -0.0007  0.0012 -0.0068 -0.0013  0.0015 -0.0047 -0.0087
 29 O           0.6739  1.2809  0.0167  1.0191  0.8771  0.3017  0.2161  0.2753  0.9624  0.7426
                0.8833  0.4969  0.2557  0.4807  0.0054  0.0144  0.0021  0.0307  0.0193 -0.0037
               -0.0044 -0.0073 -0.0013  0.0103  0.0004 -0.0036  0.0185  0.0125 -0.0081 -0.0088
 31 O           0.6680  1.2936  0.0081  1.0370  0.8540  0.2308  0.3121  0.2444  0.7913  0.9993
                0.8316  0.2342  0.4586  0.3622  0.0292  0.0195  0.0215 -0.0017  0.0035  0.0002
                0.0181  0.0131  0.0123 -0.0071  0.0011 -0.0076 -0.0088 -0.0032 -0.0015 -0.0067
 32 O           0.6741  1.2800  0.0176  1.0132  0.8746  0.2380  0.2791  0.2806  0.7881  0.9010
                0.8942  0.3454  0.4365  0.5026  0.0214  0.0252  0.0106  0.0053  0.0094 -0.0055
                0.0083  0.0089  0.0080  0.0018  0.0014 -0.0075 -0.0003  0.0031 -0.0058 -0.0098
 2 Ce           0.0189  0.2845  1.6192 -0.0051  2.0635  1.1780  0.5312  1.1560  1.1855  1.3983
                0.5831  0.0678 -0.0666 -0.0028  0.0105  0.0105  0.0105  0.3565  0.3565  0.3565
                1.6165  1.6165  1.6166  1.4412  1.4410  1.4413  0.5071  0.5074  0.5072  1.3728
                1.3725  1.3720  0.7693  0.7692  0.7705  1.4808  1.4752  1.4830  0.4767  0.4755
                0.4294  0.5516  0.8272  0.8272  0.5515  0.8271  0.5517  0.7889  1.1834  1.1833
                0.7888  1.1834  0.7888  0.7980  1.1963  1.1958  0.7980  1.1953  0.7990  0.5357
                0.8035  0.8038  0.5351  0.8041  0.5362  0.0736  0.0845  0.0898  0.0607  0.0763
                0.1090  0.1103  0.1374  0.1425  0.1023  0.1430  0.0890 -0.0022 -0.0258 -0.0433
               -0.0306 -0.0820 -0.0331  0.0077  0.0170  0.0093  0.0091  0.0048  0.0187  0.0064
                0.0094  0.0124  0.0118  0.0112  0.0378  0.0380  0.0255  0.0122  0.0508  0.0174
                0.0431  0.0332 -0.0028  0.0322  0.0581  0.0389  0.0356  0.0325  0.0661  0.0300
                0.0376  0.0605  0.0284  0.0010 -0.0719 -0.0594
 18 Ce          0.0189  0.2845  1.6192 -0.0049  2.0632  1.1681  0.5488  1.1488  1.1857  1.3966
                0.5809  0.0481 -0.0557 -0.0018  0.0105  0.0105  0.0105  0.3565  0.3565  0.3565
                1.6165  1.6165  1.6166  1.4413  1.4411  1.4412  0.5072  0.5074  0.5073  1.3724
                1.3718  1.3706  0.7694  0.7693  0.7710  1.4783  1.4702  1.4724  0.4790  0.4801
                0.4340  0.5516  0.8272  0.8272  0.5516  0.8271  0.5517  0.7886  1.1833  1.1833
                0.7888  1.1833  0.7889  0.7985  1.1964  1.1959  0.7982  1.1952  0.7988  0.5350
                0.8030  0.8035  0.5350  0.8030  0.5367  0.0753  0.0890  0.0955  0.0725  0.0677
                0.1207  0.1109  0.1288  0.1349  0.1106  0.1201  0.0714 -0.0017 -0.0232 -0.0426
               -0.0077 -0.0503 -0.0225  0.0120  0.0050  0.0071  0.0212  0.0049  0.0199  0.0045
                0.0102  0.0119  0.0137  0.0231  0.0105  0.0339  0.0528  0.0122  0.0537  0.0058
                0.0535  0.0386 -0.0067  0.0429  0.0254  0.0305  0.0717  0.0295  0.0735  0.0265
                0.0324  0.0491  0.0369 -0.0066 -0.0351 -0.0148
[...]
     451        2.9098         0.000       
     450        2.7058         0.000       
     449        2.7058         0.000       
     448        2.4625         0.000       
     447        2.4625         0.000       
     446        2.2075         0.000       
     445        2.2075         0.000       
     444        2.1182         0.000       
     443        2.1182         0.000       
     442        2.0702         0.000       
     441        2.0702         0.000       
     440        1.8575         0.000       
     439        1.8575         0.000       
     438        1.7903         0.000       
     437        1.7903         0.000       
     436        1.4099         0.000       
     435        1.4099         0.000       
     434        1.2351         0.000       
     433        1.2351         0.000       
     432        1.1408         0.000       
     431        1.1408         0.000       
     430        1.0581         0.000       
     429        1.0581         0.000       
     428        1.0059         0.000       
     427        1.0059         0.000       
     426        0.8251         0.000       
     425        0.8251         0.000       
     424        0.7836         0.000       
     423        0.7836         0.000       
     422        0.6703         0.000       
     421        0.6703         0.000       
     420        0.5697         0.000       
     419        0.5697         0.000       
     418        0.4562         0.000       
     417        0.4562         0.000       
     416        0.2187         0.000       
     415        0.2187         0.000       
     414       -0.0304         0.000       
     413       -0.0304         0.000       
     412       -0.1687         0.000       
     411       -0.1687         0.000       
     410       -0.3346         0.000       
     409       -0.3346         0.000       
     408       -0.6904         0.000       
     407       -0.6904         0.000       
     406       -0.7917         0.000       
     405       -0.7917         0.000       
     404       -0.9335         0.000       
     403       -0.9335         0.000       
     402       -1.4013         0.000       
     401       -1.4013         0.000       
     400       -1.6430         0.000       
     399       -1.6430         0.000       
     398       -1.9172         0.000       
     397       -1.9172         0.000       
     396       -1.9574         0.000       
     395       -1.9574         0.000       
     394       -2.0477         0.000       
     393       -2.0477         0.000       
     392       -2.1092         0.000       
     391       -2.1092         0.000       
     390       -2.3097         0.000       
     389       -2.3097         0.000       
     388       -4.1636         0.000       
     387       -4.1636         0.000       
     386       -4.2503         0.000       
     385       -4.2503         0.000       
     384       -4.2898         0.000       
     383       -4.2898         0.000       
     382       -4.3889         0.000       
     381       -4.3889         0.000       
     380       -4.4831         0.000       
     379       -4.4831         0.000       
     378       -4.6020         0.000       
     377       -4.6020         0.000       
     376       -4.6216         0.000       
     375       -4.6216         0.000       
     374       -4.6385         0.000       
     373       -4.6385         0.000       
     372       -4.6857         0.000       
     371       -4.6857         0.000       
     370       -4.7158         0.000       
     369       -4.7158         0.000       
     368       -4.7328         0.000       
     367       -4.7328         0.000       
     366       -4.9486         0.000       
     365       -4.9486         0.000       
     364       -4.9875         0.000       
     363       -4.9875         0.000       
     362       -5.0082         0.000       
     361       -5.0082         0.000 < LUMO
     360       -8.7084         1.000 < HOMO
     359       -8.7084         1.000       
     358       -8.8918         1.000       
     357       -8.8918         1.000       
     356       -9.0205         1.000       
     355       -9.0205         1.000       
     354       -9.0911         1.000       
     353       -9.0911         1.000       
     352       -9.1476         1.000       
     351       -9.1476         1.000       
     350       -9.3362         1.000       
     349       -9.3362         1.000       
     348       -9.6047         1.000       
     347       -9.6047         1.000       
     346       -9.7727         1.000       
     345       -9.7727         1.000       
     344       -9.8544         1.000       
     343       -9.8544         1.000       
     342       -9.9062         1.000       
     341       -9.9062         1.000       
     340       -9.9954         1.000       
     339       -9.9954         1.000       
     338      -10.0533         1.000       
     337      -10.0533         1.000       
     336      -10.0842         1.000       
     335      -10.0842         1.000       
     334      -10.1250         1.000       
     333      -10.1250         1.000       
     332      -10.1550         1.000       
     331      -10.1550         1.000       
     330      -10.1947         1.000       
     329      -10.1947         1.000       
     328      -10.2373         1.000       
     327      -10.2373         1.000       
     326      -10.2680         1.000       
     325      -10.2680         1.000       
     324      -10.3488         1.000       
     323      -10.3488         1.000       
     322      -10.3794         1.000       
     321      -10.3794         1.000       
     320      -10.4406         1.000       
     319      -10.4406         1.000       
     318      -10.4848         1.000       
     317      -10.4848         1.000       
     316      -10.5716         1.000       
     315      -10.5716         1.000       
     314      -10.6700         1.000       
     313      -10.6700         1.000       
     312      -10.7294         1.000       
     311      -10.7294         1.000       
     310      -10.8617         1.000       
     309      -10.8617         1.000       
     308      -10.9258         1.000       
     307      -10.9258         1.000       
     306      -11.0553         1.000       
     305      -11.0553         1.000       
     304      -11.1260         1.000       
     303      -11.1260         1.000       
     302      -11.1768         1.000       
     301      -11.1768         1.000       
     300      -11.4395         1.000       
     299      -11.4395         1.000       
     298      -11.5605         1.000       
     297      -11.5605         1.000       
     296      -11.7929         1.000       
     295      -11.7929         1.000       
     294      -11.8587         1.000       
     293      -11.8587         1.000       
     292      -11.9788         1.000       
     291      -11.9788         1.000       
     290      -12.0333         1.000       
     289      -12.0333         1.000       
     288      -12.1152         1.000       
     287      -12.1152         1.000       
     286      -12.4677         1.000       
     285      -12.4677         1.000       
     284      -13.5301         1.000       
     283      -13.5301         1.000       
     282      -14.0654         1.000       
     281      -14.0654         1.000       
     280      -14.2276         1.000       
     279      -14.2276         1.000       
     278      -14.3176         1.000       
     277      -14.3176         1.000       
     276      -14.5500         1.000       
     275      -14.5500         1.000       
     274      -15.4878         1.000       
     273      -15.4878         1.000       
     272      -15.6499         1.000       
     271      -15.6499         1.000       
     270      -15.7558         1.000       
     269      -15.7558         1.000       
     268      -15.7901         1.000       
     267      -15.7901         1.000       
     266      -15.9076         1.000       
     265      -15.9076         1.000       
     264      -16.0391         1.000       
     263      -16.0391         1.000       
     262      -16.0746         1.000       
     261      -16.0746         1.000       
     260      -16.1826         1.000       
     259      -16.1826         1.000       
     258      -16.3661         1.000       
     257      -16.3661         1.000       
     256      -16.4322         1.000       
     255      -16.4322         1.000       
     254      -16.5615         1.000       
     253      -16.5615         1.000       
     252      -16.5924         1.000       
     251      -16.5924         1.000       
     250      -16.6870         1.000       
     249      -16.6870         1.000       
     248      -16.7393         1.000       
     247      -16.7393         1.000       
     246      -16.7597         1.000       
     245      -16.7597         1.000       
     244      -16.8146         1.000       
     243      -16.8146         1.000       
     242      -16.8933         1.000       
     241      -16.8933         1.000       
     240      -17.0461         1.000       
     239      -17.0461         1.000       
     238      -17.2518         1.000       
     237      -17.2518         1.000       
     236      -17.5098         1.000       
     235      -17.5098         1.000       
     234      -17.5418         1.000       
     233      -17.5418         1.000       
     232      -17.6561         1.000       
     231      -17.6561         1.000       
     230      -17.8777         1.000       
     229      -17.8777         1.000       
     228      -18.1674         1.000       
     227      -18.1674         1.000       
     226      -18.2607         1.000       
     225      -18.2607         1.000       
     224      -18.5310         1.000       
     223      -18.5310         1.000       
     222      -18.6062         1.000       
     221      -18.6062         1.000       
     220      -18.6512         1.000       
     219      -18.6512         1.000       
     218      -18.8842         1.000       
     217      -18.8842         1.000       
     216      -22.9862         1.000       
     215      -22.9862         1.000       
     214      -25.2874         1.000       
     213      -25.2874         1.000       
     212      -25.5806         1.000       
     211      -25.5806         1.000       
     210      -25.8896         1.000       
     209      -25.8896         1.000       
     208      -27.2057         1.000       
     207      -27.2057         1.000       
     206      -28.3766         1.000       
     205      -28.3766         1.000       
     204      -29.6735         1.000       
     203      -29.6735         1.000       
     202      -29.9198         1.000       
     201      -29.9198         1.000       
     200      -29.9605         1.000       
     199      -29.9605         1.000       
     198      -30.0763         1.000       
     197      -30.0763         1.000       
     196      -30.1380         1.000       
     195      -30.1380         1.000       
     194      -30.2314         1.000       
     193      -30.2314         1.000       
     192      -30.3299         1.000       
     191      -30.3299         1.000       
     190      -30.4654         1.000       
     189      -30.4654         1.000       
     188      -30.6168         1.000       
     187      -30.6168         1.000       
     186      -30.8188         1.000       
     185      -30.8188         1.000       
     184      -30.8645         1.000       
     183      -30.8645         1.000       
     182      -30.9474         1.000       
     181      -30.9474         1.000       
     180      -31.0143         1.000       
     179      -31.0143         1.000       
     178      -31.0667         1.000       
     177      -31.0667         1.000       
     176      -31.1346         1.000       
     175      -31.1346         1.000       
     174      -31.1812         1.000       
     173      -31.1812         1.000       
     172      -31.3132         1.000       
     171      -31.3132         1.000       
     170      -31.4246         1.000       
     169      -31.4246         1.000       
     168      -36.2344         1.000       
     167      -36.2344         1.000       
     166      -36.4687         1.000       
     165      -36.4687         1.000       
     164      -36.5598         1.000       
     163      -36.5598         1.000       
     162      -36.5764         1.000       
     161      -36.5764         1.000       
     160      -36.6654         1.000       
     159      -36.6654         1.000       
     158      -36.8587         1.000       
     157      -36.8587         1.000       
     156      -45.0406         1.000       
     155      -45.0406         1.000       
     154      -45.3018         1.000       
     153      -45.3018         1.000       
     152     -117.3698         1.000       
     151     -117.3698         1.000       
     150     -117.3901         1.000       
     149     -117.3901         1.000       
     148     -117.4134         1.000       
     147     -117.4134         1.000       
     146     -117.7044         1.000       
     145     -117.7044         1.000       
     144     -117.7494         1.000       
     143     -117.7494         1.000       
     142     -117.7702         1.000       
     141     -117.7702         1.000       
     140     -120.7312         1.000       
     139     -120.7312         1.000       
     138     -120.7633         1.000       
     137     -120.7633         1.000       
     136     -121.0729         1.000       
     135     -121.0729         1.000       
     134     -121.1227         1.000       
     133     -121.1227         1.000       
     132     -217.2365         1.000       
     131     -217.2365         1.000       
     130     -217.2825         1.000       
     129     -217.2825         1.000       
     128     -217.5846         1.000       
     127     -217.5846         1.000       
     126     -217.6507         1.000       
     125     -217.6507         1.000       
     124     -236.3945         1.000       
     123     -236.3945         1.000       
     122     -236.7549         1.000       
     121     -236.7549         1.000       
     120     -294.4297         1.000       
     119     -294.4297         1.000       
     118     -294.7823         1.000       
     117     -294.7823         1.000       
     116     -399.8447         1.000       
     115     -399.8447         1.000       
     114     -400.0327         1.000       
     113     -400.0327         1.000       
     112     -400.1397         1.000       
     111     -400.1397         1.000       
     110     -400.1692         1.000       
     109     -400.1692         1.000       
     108     -400.2590         1.000       
     107     -400.2590         1.000       
     106     -400.4301         1.000       
     105     -400.4301         1.000       
     104     -524.0445         1.000       
     103     -524.0445         1.000       
     102     -524.4773         1.000       
     101     -524.4773         1.000       
     100     -524.6336         1.000       
      99     -524.6336         1.000       
      98     -524.7178         1.000       
      97     -524.7178         1.000       
      96     -524.7812         1.000       
      95     -524.7812         1.000       
      94     -524.8022         1.000       
      93     -524.8022         1.000       
      92     -524.8080         1.000       
      91     -524.8080         1.000       
      90     -524.8268         1.000       
      89     -524.8268         1.000       
      88     -524.8691         1.000       
      87     -524.8691         1.000       
      86     -524.9161         1.000       
      85     -524.9161         1.000       
      84     -524.9263         1.000       
      83     -524.9263         1.000       
      82     -524.9828         1.000       
      81     -524.9828         1.000       
      80     -525.0295         1.000       
      79     -525.0295         1.000       
      78     -525.0397         1.000       
      77     -525.0397         1.000       
      76     -525.0503         1.000       
      75     -525.0503         1.000       
      74     -525.1026         1.000       
      73     -525.1026         1.000       
      72     -525.1365         1.000       
      71     -525.1365         1.000       
      70     -525.1701         1.000       
      69     -525.1701         1.000       
      68     -525.2136         1.000       
      67     -525.2136         1.000       
      66     -525.2998         1.000       
      65     -525.2998         1.000       
      64     -525.8594         1.000       
      63     -525.8594         1.000       
      62     -525.8656         1.000       
      61     -525.8656         1.000       
      60     -525.8789         1.000       
      59     -525.8789         1.000       
      58     -526.0580         1.000       
      57     -526.0580         1.000       
      56     -879.8422         1.000       
      55     -879.8422         1.000       
      54     -879.8787         1.000       
      53     -879.8787         1.000       
      52     -879.9033         1.000       
      51     -879.9033         1.000       
      50     -880.2094         1.000       
      49     -880.2094         1.000       
      48     -880.2534         1.000       
      47     -880.2534         1.000       
      46     -880.2780         1.000       
      45     -880.2780         1.000       
      44     -898.4995         1.000       
      43     -898.4995         1.000       
      42     -898.5433         1.000       
      41     -898.5433         1.000       
      40     -898.8677         1.000       
      39     -898.8677         1.000       
      38     -898.9182         1.000       
      37     -898.9182         1.000       
      36    -1169.6148         1.000       
      35    -1169.6148         1.000       
      34    -1169.6733         1.000       
      33    -1169.6733         1.000       
      32    -1169.9856         1.000       
      31    -1169.9856         1.000       
      30    -1170.0517         1.000       
      29    -1170.0517         1.000       
      28    -1257.8606         1.000       
      27    -1257.8606         1.000       
      26    -1258.2343         1.000       
      25    -1258.2343         1.000       
      24    -1411.8001         1.000       
      23    -1411.8001         1.000       
      22    -1412.1632         1.000       
      21    -1412.1632         1.000       
      20    -5674.0928         1.000       
      19    -5674.0928         1.000       
      18    -5674.0996         1.000       
      17    -5674.0996         1.000       
      16    -5674.4279         1.000       
      15    -5674.4279         1.000       
      14    -5674.4369         1.000       
      13    -5674.4369         1.000       
      12    -6120.3487         1.000       
      11    -6120.3487         1.000       
      10    -6120.6826         1.000       
       9    -6120.6826         1.000       
       8    -6486.2806         1.000       
       7    -6486.2806         1.000       
       6    -6486.6181         1.000       
       5    -6486.6181         1.000       
       4   -40323.5056         1.000       
       3   -40323.5056         1.000       
       2   -40323.8061         1.000       
       1   -40323.8061         1.000       

AMS application finished. Exiting.
NORMAL TERMINATION
     Total cpu time:    4529.27
  Total system time:     675.71
 Total elapsed time:    5211.39
