 Entering Gaussian System, Link 0=/home/pcmt/gaussian/g16.C.01/g16/g16
 Initial command:
 /home/pcmt/gaussian/g16.C.01/g16/l1.exe "/state/partition2/vallet/1007708.phlam-s-sakura/Gau-10961.inp" -scrdir="/state/partition2/vallet/1007708.phlam-s-sakura/"
 Entering Link 1 = /home/pcmt/gaussian/g16.C.01/g16/l1.exe PID=     10962.
  
 Copyright (c) 1988-2019, Gaussian, Inc.  All Rights Reserved.
  
 This is part of the Gaussian(R) 16 program.  It is based on
 the Gaussian(R) 09 system (copyright 2009, Gaussian, Inc.),
 the Gaussian(R) 03 system (copyright 2003, Gaussian, Inc.),
 the Gaussian(R) 98 system (copyright 1998, Gaussian, Inc.),
 the Gaussian(R) 94 system (copyright 1995, Gaussian, Inc.),
 the Gaussian 92(TM) system (copyright 1992, Gaussian, Inc.),
 the Gaussian 90(TM) system (copyright 1990, Gaussian, Inc.),
 the Gaussian 88(TM) system (copyright 1988, Gaussian, Inc.),
 the Gaussian 86(TM) system (copyright 1986, Carnegie Mellon
 University), and the Gaussian 82(TM) system (copyright 1983,
 Carnegie Mellon University). Gaussian is a federally registered
 trademark of Gaussian, Inc.
  
 This software contains proprietary and confidential information,
 including trade secrets, belonging to Gaussian, Inc.
  
 This software is provided under written license and may be
 used, copied, transmitted, or stored only in accord with that
 written license.
  
 The following legend is applicable only to US Government
 contracts under FAR:
  
                    RESTRICTED RIGHTS LEGEND
  
 Use, reproduction and disclosure by the US Government is
 subject to restrictions as set forth in subparagraphs (a)
 and (c) of the Commercial Computer Software - Restricted
 Rights clause in FAR 52.227-19.
  
 Gaussian, Inc.
 340 Quinnipiac St., Bldg. 40, Wallingford CT 06492
  
  
 ---------------------------------------------------------------
 Warning -- This program may not be used in any manner that
 competes with the business of Gaussian, Inc. or will provide
 assistance to any competitor of Gaussian, Inc.  The licensee
 of this program is prohibited from giving any competitor of
 Gaussian, Inc. access to this program.  By using this program,
 the user acknowledges that Gaussian, Inc. is engaged in the
 business of creating and licensing software in the field of
 computational chemistry and represents and warrants to the
 licensee that it is not a competitor of Gaussian, Inc. and that
 it will not use this program in any manner prohibited above.
 ---------------------------------------------------------------
  

 Cite this work as:
 Gaussian 16, Revision C.01,
 M. J. Frisch, G. W. Trucks, H. B. Schlegel, G. E. Scuseria, 
 M. A. Robb, J. R. Cheeseman, G. Scalmani, V. Barone, 
 G. A. Petersson, H. Nakatsuji, X. Li, M. Caricato, A. V. Marenich, 
 J. Bloino, B. G. Janesko, R. Gomperts, B. Mennucci, H. P. Hratchian, 
 J. V. Ortiz, A. F. Izmaylov, J. L. Sonnenberg, D. Williams-Young, 
 F. Ding, F. Lipparini, F. Egidi, J. Goings, B. Peng, A. Petrone, 
 T. Henderson, D. Ranasinghe, V. G. Zakrzewski, J. Gao, N. Rega, 
 G. Zheng, W. Liang, M. Hada, M. Ehara, K. Toyota, R. Fukuda, 
 J. Hasegawa, M. Ishida, T. Nakajima, Y. Honda, O. Kitao, H. Nakai, 
 T. Vreven, K. Throssell, J. A. Montgomery, Jr., J. E. Peralta, 
 F. Ogliaro, M. J. Bearpark, J. J. Heyd, E. N. Brothers, K. N. Kudin, 
 V. N. Staroverov, T. A. Keith, R. Kobayashi, J. Normand, 
 K. Raghavachari, A. P. Rendell, J. C. Burant, S. S. Iyengar, 
 J. Tomasi, M. Cossi, J. M. Millam, M. Klene, C. Adamo, R. Cammi, 
 J. W. Ochterski, R. L. Martin, K. Morokuma, O. Farkas, 
 J. B. Foresman, and D. J. Fox, Gaussian, Inc., Wallingford CT, 2019.
 
 ******************************************
 Gaussian 16:  ES64L-G16RevC.01  3-Jul-2019
                15-Feb-2024 
 ******************************************
 %mem=16000Mb
 %NProc=16
 Will use up to   16 processors via shared memory.
 %chk=h2o.pbe0.optg-freq.chk
 ----------------------------------------------------------------------
 #p PBE1PBE/GEN/GEN GFInput GFOldPrint 5D 7F IOP(4/69=2, 6/7=3) Scf=(XQ
 C, NoVarAcc,MaxCycle=100,conver=8) Integral=(Grid=UltraFine) Guess=Har
 ris Symm=None Opt Freq=(Raman,InternalModes,SaveNormalModes) SCRF=(COS
 MO,Read)
 ----------------------------------------------------------------------
 1/18=20,19=15,26=6,38=1,40=2/1,3;
 2/9=110,12=2,15=3,17=6,18=5,40=1/2;
 3/5=7,8=11,11=2,24=11,25=1,30=1,70=22103,71=1,74=-13,75=-5,82=7/1,2,3;
 4/11=8,69=2/1;
 5/5=2,6=8,7=100,8=3,13=1,38=1/2,8;
 6/7=3,8=2,9=2,10=2,28=1/1;
 7/30=1,92=1/1,2,3,16;
 1/18=20,19=15,26=6/3(2);
 2/9=110,15=3/2;
 99//99;
 2/9=110,15=3/2;
 3/5=7,6=1,8=11,11=2,25=1,30=1,70=22105,71=1,74=-13,75=-5,82=7/1,2,3;
 4/5=5,11=8,16=3,69=2/1;
 5/5=2,6=8,7=100,8=3,13=1,38=1/2,8;
 7/30=1,92=1/1,2,3,16;
 1/18=20,19=15,26=6/3(-5);
 2/9=110,15=3/2;
 6/7=3,8=2,9=2,10=2,19=2,28=1/1;
 99/9=1/99;
 Leave Link    1 at Thu Feb 15 23:41:28 2024, MaxMem=  2097152000 cpu:               1.4 elap:               0.1
 (Enter /home/pcmt/gaussian/g16.C.01/g16/l101.exe)
 ----------------------
 h2o.pbe0.optg-freq.chk
 ----------------------
 Symbolic Z-matrix:
 Charge =  0 Multiplicity = 1
 O                     0.        0.        0. 
 H                     0.        1.        0.5 
 H                     0.        1.       -0.5 
 
 ITRead=  0  0  0
 MicOpt= -1 -1 -1
 NAtoms=      3 NQM=        3 NQMF=       0 NMMI=      0 NMMIF=      0
                NMic=       0 NMicF=      0.
                    Isotopes and Nuclear Properties:
 (Nuclear quadrupole moments (NQMom) in fm**2, nuclear magnetic moments (NMagM)
  in nuclear magnetons)

  Atom         1           2           3
 IAtWgt=          16           1           1
 AtmWgt=  15.9949146   1.0078250   1.0078250
 NucSpn=           0           1           1
 AtZEff=  -0.0000000  -0.0000000  -0.0000000
 NQMom=    0.0000000   0.0000000   0.0000000
 NMagM=    0.0000000   2.7928460   2.7928460
 AtZNuc=   8.0000000   1.0000000   1.0000000
 Leave Link  101 at Thu Feb 15 23:41:29 2024, MaxMem=  2097152000 cpu:               2.8 elap:               0.5
 (Enter /home/pcmt/gaussian/g16.C.01/g16/l103.exe)

 GradGradGradGradGradGradGradGradGradGradGradGradGradGradGradGradGradGrad
 Berny optimization.
 Initialization pass.
                           ----------------------------
                           !    Initial Parameters    !
                           ! (Angstroms and Degrees)  !
 --------------------------                            --------------------------
 ! Name  Definition              Value          Derivative Info.                !
 --------------------------------------------------------------------------------
 ! R1    R(1,2)                  1.118          estimate D2E/DX2                !
 ! R2    R(1,3)                  1.118          estimate D2E/DX2                !
 ! A1    A(2,1,3)               53.1301         estimate D2E/DX2                !
 --------------------------------------------------------------------------------
 Trust Radius=3.00D-01 FncErr=5.00D-06 GrdErr=5.00D-06 EigMax=2.50D+02 EigMin=1.00D-04
 Number of steps in this run=     20 maximum allowed number of steps=    100.
 GradGradGradGradGradGradGradGradGradGradGradGradGradGradGradGradGradGrad

 Leave Link  103 at Thu Feb 15 23:41:29 2024, MaxMem=  2097152000 cpu:               0.2 elap:               0.1
 (Enter /home/pcmt/gaussian/g16.C.01/g16/l202.exe)
                          Input orientation:                          
 ---------------------------------------------------------------------
 Center     Atomic      Atomic             Coordinates (Angstroms)
 Number     Number       Type             X           Y           Z
 ---------------------------------------------------------------------
      1          8           0        0.000000    0.000000    0.000000
      2          1           0        0.000000    1.000000    0.500000
      3          1           0        0.000000    1.000000   -0.500000
 ---------------------------------------------------------------------
                    Distance matrix (angstroms):
                    1          2          3
     1  O    0.000000
     2  H    1.118034   0.000000
     3  H    1.118034   1.000000   0.000000
 Symmetry turned off by external request.
 Stoichiometry    H2O
 Rotational constants (GHZ):        1002.9102089         282.3237827         220.3065012
 Leave Link  202 at Thu Feb 15 23:41:29 2024, MaxMem=  2097152000 cpu:               0.1 elap:               0.1
 (Enter /home/pcmt/gaussian/g16.C.01/g16/l301.exe)
 General basis read from cards:  (5D, 7F)
 Centers:       1
 Def2TZVP
 ****
 Centers:       2      3
 Def2TZVP
 ****
 Ernie: Thresh=  0.10000D-02 Tol=  0.10000D-05 Strict=F.
 AO basis set in the form of general basis input (Overlap normalization):
      1 0
 S   6 1.00       0.000000000000
      0.2703238263D+05  0.5722733521D-03
      0.4052387139D+04  0.4435323349D-02
      0.9223272271D+03  0.2302010771D-01
      0.2612407099D+03  0.9282249067D-01
      0.8535464135D+02  0.2937850001D+00
      0.3103503524D+02  0.6740160450D+00
 S   2 1.00       0.000000000000
      0.1226086073D+02  0.6383993703D+00
      0.4998707601D+01  0.3953458713D+00
 S   1 1.00       0.000000000000
      0.1170310816D+01  0.1000000000D+01
 S   1 1.00       0.000000000000
      0.4647474099D+00  0.1000000000D+01
 S   1 1.00       0.000000000000
      0.1850453636D+00  0.1000000000D+01
 P   4 1.00       0.000000000000
      0.6327495480D+02  0.1201833222D-01
      0.1462704938D+02  0.8300542179D-01
      0.4450122346D+01  0.3199174393D+00
      0.1527579965D+01  0.7071554292D+00
 P   1 1.00       0.000000000000
      0.5293511794D+00  0.1000000000D+01
 P   1 1.00       0.000000000000
      0.1747842127D+00  0.1000000000D+01
 D   1 1.00       0.000000000000
      0.2314000000D+01  0.1000000000D+01
 D   1 1.00       0.000000000000
      0.6450000000D+00  0.1000000000D+01
 F   1 1.00       0.000000000000
      0.1428000000D+01  0.1000000000D+01
 ****
      2 0
 S   3 1.00       0.000000000000
      0.3406134100D+02  0.2543930721D-01
      0.5123574600D+01  0.1900859489D+00
      0.1164662600D+01  0.8524411301D+00
 S   1 1.00       0.000000000000
      0.3272304100D+00  0.1000000000D+01
 S   1 1.00       0.000000000000
      0.1030724100D+00  0.1000000000D+01
 P   1 1.00       0.000000000000
      0.8000000000D+00  0.1000000000D+01
 ****
      3 0
 S   3 1.00       0.000000000000
      0.3406134100D+02  0.2543930721D-01
      0.5123574600D+01  0.1900859489D+00
      0.1164662600D+01  0.8524411301D+00
 S   1 1.00       0.000000000000
      0.3272304100D+00  0.1000000000D+01
 S   1 1.00       0.000000000000
      0.1030724100D+00  0.1000000000D+01
 P   1 1.00       0.000000000000
      0.8000000000D+00  0.1000000000D+01
 ****

 ***********************************************************************************************************************************
 *             ATOMIC CENTER             *        ATOMIC ORBITAL       *                     GAUSSIAN FUNCTIONS                    *
 ***********************************************************************************************************************************
 *                                       * FUNCTION    SHELL    SCALE  *                                                           *
 *    ATOM   X-COORD  Y-COORD  Z-COORD   *  NUMBER     TYPE     FACTOR *  EXPONENT    S-COEF      P-COEF      D-COEF      F-COEF   *
 ***********************************************************************************************************************************
 *     O      0.00000  0.00000  0.00000                                                                                            *
+                                                1   S           1.00                                                               
+                                                                      0.270324D+050.859858D+000.000000D+000.000000D+000.000000D+00 
 *                                                                     0.405239D+040.160553D+010.000000D+000.000000D+000.000000D+00*
 *                                                                     0.922327D+030.274588D+010.000000D+000.000000D+000.000000D+00*
 *                                                                     0.261241D+030.429877D+010.000000D+000.000000D+000.000000D+00*
 *                                                                     0.853546D+020.587977D+010.000000D+000.000000D+000.000000D+00*
 *                                                                     0.310350D+020.631640D+010.000000D+000.000000D+000.000000D+00*
 *                                               2   S           1.00                                                              *
+                                                                      0.122609D+020.298121D+010.000000D+000.000000D+000.000000D+00 
 *                                                                     0.499871D+010.941956D+000.000000D+000.000000D+000.000000D+00*
 *                                               3   S           1.00                                                              *
+                                                                      0.117031D+010.801929D+000.000000D+000.000000D+000.000000D+00 
 *                                               4   S           1.00                                                              *
+                                                                      0.464747D+000.401165D+000.000000D+000.000000D+000.000000D+00 
 *                                               5   S           1.00                                                              *
+                                                                      0.185045D+000.201080D+000.000000D+000.000000D+000.000000D+00 
 *                                           6-  8   P           1.00                                                              *
+                                                                      0.632750D+020.000000D+000.305720D+010.000000D+000.000000D+00 
 *                                                                     0.146270D+020.000000D+000.338448D+010.000000D+000.000000D+00*
 *                                                                     0.445012D+010.000000D+000.294743D+010.000000D+000.000000D+00*
 *                                                                     0.152758D+010.000000D+000.171183D+010.000000D+000.000000D+00*
 *                                           9- 11   P           1.00                                                              *
+                                                                      0.529351D+000.000000D+000.643606D+000.000000D+000.000000D+00 
 *                                          12- 14   P           1.00                                                              *
+                                                                      0.174784D+000.000000D+000.161090D+000.000000D+000.000000D+00 
 *                                          15- 19   D           1.00                                                              *
+                                                                      0.231400D+010.000000D+000.000000D+000.714571D+010.000000D+00 
 *                                          20- 24   D           1.00                                                              *
+                                                                      0.645000D+000.000000D+000.000000D+000.764080D+000.000000D+00 
 *                                          19- 31   F           1.00                                                              *
+                                                                      0.142800D+010.000000D+000.000000D+000.000000D+000.328165D+01 
 *---------------------------------------------------------------------------------------------------------------------------------*
 *     H      0.00000  1.88973  0.94486                                                                                            *
+                                               32   S           1.00                                                               
+                                                                      0.340613D+020.255630D+000.000000D+000.000000D+000.000000D+00 
 *                                                                     0.512357D+010.461360D+000.000000D+000.000000D+000.000000D+00*
 *                                                                     0.116466D+010.681121D+000.000000D+000.000000D+000.000000D+00*
 *                                              33   S           1.00                                                              *
+                                                                      0.327230D+000.308355D+000.000000D+000.000000D+000.000000D+00 
 *                                              34   S           1.00                                                              *
+                                                                      0.103072D+000.129648D+000.000000D+000.000000D+000.000000D+00 
 *                                          35- 37   P           1.00                                                              *
+                                                                      0.800000D+000.000000D+000.107846D+010.000000D+000.000000D+00 
 *---------------------------------------------------------------------------------------------------------------------------------*
 *     H      0.00000  1.88973 -0.94486                                                                                            *
+                                               38   S           1.00                                                               
+                                                                      0.340613D+020.255630D+000.000000D+000.000000D+000.000000D+00 
 *                                                                     0.512357D+010.461360D+000.000000D+000.000000D+000.000000D+00*
 *                                                                     0.116466D+010.681121D+000.000000D+000.000000D+000.000000D+00*
 *                                              39   S           1.00                                                              *
+                                                                      0.327230D+000.308355D+000.000000D+000.000000D+000.000000D+00 
 *                                              40   S           1.00                                                              *
+                                                                      0.103072D+000.129648D+000.000000D+000.000000D+000.000000D+00 
 *                                          41- 43   P           1.00                                                              *
+                                                                      0.800000D+000.000000D+000.107846D+010.000000D+000.000000D+00 
 ***********************************************************************************************************************************
    43 basis functions,    67 primitive gaussians,    48 cartesian basis functions
     5 alpha electrons        5 beta electrons
       nuclear repulsion energy         8.1021449918 Hartrees.
 IExCor= 1009 DFT=T Ex+Corr=PBE1PBE ExCW=0 ScaHFX=  0.250000
 ScaDFX=  0.750000  0.750000  1.000000  1.000000 ScalE2=  1.000000  1.000000
 IRadAn=      5 IRanWt=     -1 IRanGd=            0 ICorTp=0 IEmpDi=  4
 NAtoms=    3 NActive=    3 NUniq=    3 SFac= 1.00D+00 NAtFMM=   60 NAOKFM=F Big=F
 Integral buffers will be    131072 words long.
 Raffenetti 2 integral format.
 Two-electron integral symmetry is turned off.
 General density basis read from cards:  (5D, 7F)
 Centers:       1
 Def2TZVP
 ****
 Centers:       2      3
 Def2TZVP
 ****
    43 Density fitting functions
 Density basis set in the form of general basis input (Coulomb normalization):
      1 0
 S   6 1.00       0.000000000000
      0.2703238263D+05  0.5435345029D-03
      0.4052387139D+04  0.4212586979D-02
      0.9223272271D+03  0.2186406680D-01
      0.2612407099D+03  0.8816106172D-01
      0.8535464135D+02  0.2790314862D+00
      0.3103503524D+02  0.6401678055D+00
 S   2 1.00       0.000000000000
      0.1226086073D+02  0.6246133058D+00
      0.4998707601D+01  0.3868084824D+00
 S   1 1.00       0.000000000000
      0.1170310816D+01  0.1000000000D+01
 S   1 1.00       0.000000000000
      0.4647474099D+00  0.1000000000D+01
 S   1 1.00       0.000000000000
      0.1850453636D+00  0.1000000000D+01
 P   4 1.00       0.000000000000
      0.6327495480D+02  0.1157072397D-01
      0.1462704938D+02  0.7991398521D-01
      0.4450122346D+01  0.3080025010D+00
      0.1527579965D+01  0.6808182802D+00
 P   1 1.00       0.000000000000
      0.5293511794D+00  0.1000000000D+01
 P   1 1.00       0.000000000000
      0.1747842127D+00  0.1000000000D+01
 D   1 1.00       0.000000000000
      0.2314000000D+01  0.1000000000D+01
 D   1 1.00       0.000000000000
      0.6450000000D+00  0.1000000000D+01
 F   1 1.00       0.000000000000
      0.1428000000D+01  0.1000000000D+01
 ****
      2 0
 S   3 1.00       0.000000000000
      0.3406134100D+02  0.2444544597D-01
      0.5123574600D+01  0.1826596831D+00
      0.1164662600D+01  0.8191380142D+00
 S   1 1.00       0.000000000000
      0.3272304100D+00  0.1000000000D+01
 S   1 1.00       0.000000000000
      0.1030724100D+00  0.1000000000D+01
 P   1 1.00       0.000000000000
      0.8000000000D+00  0.1000000000D+01
 ****
      3 0
 S   3 1.00       0.000000000000
      0.3406134100D+02  0.2444544597D-01
      0.5123574600D+01  0.1826596831D+00
      0.1164662600D+01  0.8191380142D+00
 S   1 1.00       0.000000000000
      0.3272304100D+00  0.1000000000D+01
 S   1 1.00       0.000000000000
      0.1030724100D+00  0.1000000000D+01
 P   1 1.00       0.000000000000
      0.8000000000D+00  0.1000000000D+01
 ****

 Using the following non-standard input for PCM:
 EPS=80.1
 Radii=Bondi
 RSolv=1.3
 --- end of non-standard input.
 ------------------------------------------------------------------------------
 Polarizable Continuum Model (PCM)
 =================================
 Model                : C-PCM.
 Atomic radii         : Bondi.
 Polarization charges : Total charges.
 Charge compensation  : None.
 Solution method      : On-the-fly selection.
 Cavity type          : Scaled VdW (van der Waals Surface) (Alpha=1.100).
 Cavity algorithm     : GePol (No added spheres)
                        Default sphere list used, NSphG=    3.
                        Lebedev-Laikov grids with approx.  5.0 points / Ang**2.
                        Smoothing algorithm: York/Karplus (Gamma=1.0000).
                        Polarization charges: spherical gaussians, with
                                              point-specific exponents (IZeta= 3).
                        Self-potential: point-specific (ISelfS= 7).
                        Self-field    : sphere-specific E.n sum rule (ISelfD= 2).
 1st derivatives      : Analytical E(r).r(x)/FMM algorithm (CHGder, D1EAlg=3).
                        Cavity 1st derivative terms included.
 Solvent              : Water, Eps=  80.100000 Eps(inf)=   1.777849
 ------------------------------------------------------------------------------
 Spheres list:
 ISph  on   Nord     Re0    Alpha      Xe            Ye            Ze
    1   O      1    1.5200  1.100      0.000000      0.000000      0.000000
    2   H      2    1.2000  1.100      0.000000      1.000000      0.500000
    3   H      3    1.2000  1.100      0.000000      1.000000     -0.500000
 ------------------------------------------------------------------------------
 GePol: Number of generator spheres                  =       3
 GePol: Total number of spheres                      =       3
 GePol: Number of exposed spheres                    =       3 (100.00%)
 GePol: Number of points                             =     261
 GePol: Average weight of points                     =       0.17
 GePol: Minimum weight of points                     =   0.55D-05
 GePol: Maximum weight of points                     =    0.21770
 GePol: Number of points with low weight             =       4
 GePol: Fraction of low-weight points (<1% of avg)   =       1.53%
 GePol: Cavity surface area                          =     43.539 Ang**2
 GePol: Cavity volume                                =     25.688 Ang**3
 Leave Link  301 at Thu Feb 15 23:41:29 2024, MaxMem=  2097152000 cpu:               1.8 elap:               0.2
 (Enter /home/pcmt/gaussian/g16.C.01/g16/l302.exe)
 NPDir=0 NMtPBC=     1 NCelOv=     1 NCel=       1 NClECP=     1 NCelD=      1
         NCelK=      1 NCelE2=     1 NClLst=     1 CellRange=     0.0.
 One-electron integrals computed using PRISM.
 NBasis=    43 RedAO= T EigKep=  1.46D-02  NBF=    43
 NBsUse=    43 1.00D-06 EigRej= -1.00D+00 NBFU=    43
 Precomputing XC quadrature grid using
 IXCGrd= 4 IRadAn=           5 IRanWt=          -1 IRanGd=           0 AccXCQ= 0.00D+00.
 Generated NRdTot=       0 NPtTot=           0 NUsed=           0 NTot=          32
 NSgBfM=    48    48    48    48    48 MxSgAt=     3 MxSgA2=     3.
 Leave Link  302 at Thu Feb 15 23:41:29 2024, MaxMem=  2097152000 cpu:               3.5 elap:               0.3
 (Enter /home/pcmt/gaussian/g16.C.01/g16/l303.exe)
 DipDrv:  MaxL=1.
 Leave Link  303 at Thu Feb 15 23:41:29 2024, MaxMem=  2097152000 cpu:               0.3 elap:               0.1
 (Enter /home/pcmt/gaussian/g16.C.01/g16/l401.exe)
 ExpMin= 1.03D-01 ExpMax= 2.70D+04 ExpMxC= 9.22D+02 IAcc=3 IRadAn=         5 AccDes= 0.00D+00
 Harris functional with IExCor= 1009 and IRadAn=       5 diagonalized for initial guess.
 HarFok:  IExCor= 1009 AccDes= 0.00D+00 IRadAn=         5 IDoV= 1 UseB2=F ITyADJ=14
 ICtDFT=  3500011 ScaDFX=  1.000000  1.000000  1.000000  1.000000
 FoFCou: FMM=F IPFlag=           0 FMFlag=      100000 FMFlg1=           0
         NFxFlg=           0 DoJE=T BraDBF=F KetDBF=T FulRan=T
         wScrn=  0.000000 ICntrl=       500 IOpCl=  0 I1Cent=   200000004 NGrid=           0
         NMat0=    1 NMatS0=      1 NMatT0=    0 NMatD0=    1 NMtDS0=    0 NMtDT0=    0
 Symmetry not used in FoFCou.
 Harris En= -76.3313846226698    
 JPrj=0 DoOrth=F DoCkMO=F.
 Leave Link  401 at Thu Feb 15 23:41:30 2024, MaxMem=  2097152000 cpu:               4.1 elap:               0.3
 (Enter /home/pcmt/gaussian/g16.C.01/g16/l502.exe)
 Keep R1 ints in memory in canonical form, NReq=14409293.
 FoFCou: FMM=F IPFlag=           0 FMFlag=           0 FMFlg1=           0
         NFxFlg=           0 DoJE=F BraDBF=F KetDBF=F FulRan=T
         wScrn=  0.000000 ICntrl=       600 IOpCl=  0 I1Cent=           0 NGrid=           0
         NMat0=    1 NMatS0=    946 NMatT0=    0 NMatD0=    1 NMtDS0=    0 NMtDT0=    0
 Symmetry not used in FoFCou.
 Two-electron integral symmetry not used.
 Closed shell SCF:
 Using DIIS extrapolation, IDIIS=  1040.
 NGot=  2097152000 LenX=  2096698137 LenY=  2096695392
 Requested convergence on RMS density matrix=1.00D-08 within 100 cycles.
 Requested convergence on MAX density matrix=1.00D-06.
 Requested convergence on             energy=1.00D-06.
 No special actions if energy rises.

 Cycle   1  Pass 1  IDiag  1:
 Inv3:  Mode=1 IEnd=      204363.
 Iteration    1 A*A^-1 deviation from unit magnitude is 2.33D-15 for    143.
 Iteration    1 A*A^-1 deviation from orthogonality  is 9.49D-16 for    177     70.
 Iteration    1 A^-1*A deviation from unit magnitude is 2.22D-15 for    110.
 Iteration    1 A^-1*A deviation from orthogonality  is 6.54D-16 for    141     91.
 E= -76.2503751608153    
 DIIS: error= 4.59D-02 at cycle   1 NSaved=   1.
 NSaved= 1 IEnMin= 1 EnMin= -76.2503751608153     IErMin= 1 ErrMin= 4.59D-02
 ErrMax= 4.59D-02  0.00D+00 EMaxC= 1.00D-01 BMatC= 7.75D-02 BMatP= 7.75D-02
 IDIUse=3 WtCom= 5.41D-01 WtEn= 4.59D-01
 Coeff-Com:  0.100D+01
 Coeff-En:   0.100D+01
 Coeff:      0.100D+01
 Gap=     0.228 Goal=   None    Shift=    0.000
 GapD=    0.228 DampG=1.000 DampE=0.500 DampFc=0.5000 IDamp=-1.
 Damping current iteration by 5.00D-01
 RMSDP=8.68D-03 MaxDP=1.10D-01              OVMax= 1.97D-01

 Cycle   2  Pass 1  IDiag  1:
 E= -76.2616517476136     Delta-E=       -0.011276586798 Rises=F Damp=T
 DIIS: error= 1.65D-02 at cycle   2 NSaved=   2.
 NSaved= 2 IEnMin= 2 EnMin= -76.2616517476136     IErMin= 2 ErrMin= 1.65D-02
 ErrMax= 1.65D-02  0.00D+00 EMaxC= 1.00D-01 BMatC= 1.06D-02 BMatP= 7.75D-02
 IDIUse=3 WtCom= 8.35D-01 WtEn= 1.65D-01
 Coeff-Com:  0.251D+00 0.749D+00
 Coeff-En:   0.408D+00 0.592D+00
 Coeff:      0.277D+00 0.723D+00
 Gap=     0.320 Goal=   None    Shift=    0.000
 RMSDP=1.44D-03 MaxDP=2.08D-02 DE=-1.13D-02 OVMax= 1.25D-01

 Cycle   3  Pass 1  IDiag  1:
 E= -76.3051591128280     Delta-E=       -0.043507365214 Rises=F Damp=F
 DIIS: error= 1.62D-03 at cycle   3 NSaved=   3.
 NSaved= 3 IEnMin= 3 EnMin= -76.3051591128280     IErMin= 3 ErrMin= 1.62D-03
 ErrMax= 1.62D-03  0.00D+00 EMaxC= 1.00D-01 BMatC= 1.19D-04 BMatP= 1.06D-02
 IDIUse=3 WtCom= 9.84D-01 WtEn= 1.62D-02
 Coeff-Com:  0.266D-01-0.336D-01 0.101D+01
 Coeff-En:   0.000D+00 0.000D+00 0.100D+01
 Coeff:      0.262D-01-0.330D-01 0.101D+01
 Gap=     0.328 Goal=   None    Shift=    0.000
 RMSDP=1.54D-04 MaxDP=1.52D-03 DE=-4.35D-02 OVMax= 3.55D-03

 Cycle   4  Pass 1  IDiag  1:
 E= -76.3052397745674     Delta-E=       -0.000080661739 Rises=F Damp=F
 DIIS: error= 2.96D-04 at cycle   4 NSaved=   4.
 NSaved= 4 IEnMin= 4 EnMin= -76.3052397745674     IErMin= 4 ErrMin= 2.96D-04
 ErrMax= 2.96D-04  0.00D+00 EMaxC= 1.00D-01 BMatC= 2.46D-06 BMatP= 1.19D-04
 IDIUse=3 WtCom= 9.97D-01 WtEn= 2.96D-03
 Coeff-Com:  0.615D-02-0.157D-01 0.256D+00 0.754D+00
 Coeff-En:   0.000D+00 0.000D+00 0.000D+00 0.100D+01
 Coeff:      0.613D-02-0.157D-01 0.255D+00 0.755D+00
 Gap=     0.328 Goal=   None    Shift=    0.000
 RMSDP=1.97D-05 MaxDP=1.64D-04 DE=-8.07D-05 OVMax= 3.50D-04

 Cycle   5  Pass 1  IDiag  1:
 E= -76.3052413810331     Delta-E=       -0.000001606466 Rises=F Damp=F
 DIIS: error= 5.08D-05 at cycle   5 NSaved=   5.
 NSaved= 5 IEnMin= 5 EnMin= -76.3052413810331     IErMin= 5 ErrMin= 5.08D-05
 ErrMax= 5.08D-05  0.00D+00 EMaxC= 1.00D-01 BMatC= 6.77D-08 BMatP= 2.46D-06
 IDIUse=1 WtCom= 1.00D+00 WtEn= 0.00D+00
 Coeff-Com:  0.269D-03-0.583D-03-0.121D-01 0.309D-01 0.982D+00
 Coeff:      0.269D-03-0.583D-03-0.121D-01 0.309D-01 0.982D+00
 Gap=     0.328 Goal=   None    Shift=    0.000
 RMSDP=5.49D-06 MaxDP=4.64D-05 DE=-1.61D-06 OVMax= 1.47D-04

 Cycle   6  Pass 1  IDiag  1:
 E= -76.3052414420263     Delta-E=       -0.000000060993 Rises=F Damp=F
 DIIS: error= 5.44D-06 at cycle   6 NSaved=   6.
 NSaved= 6 IEnMin= 6 EnMin= -76.3052414420263     IErMin= 6 ErrMin= 5.44D-06
 ErrMax= 5.44D-06  0.00D+00 EMaxC= 1.00D-01 BMatC= 1.34D-09 BMatP= 6.77D-08
 IDIUse=1 WtCom= 1.00D+00 WtEn= 0.00D+00
 Coeff-Com: -0.137D-03 0.187D-03-0.551D-03-0.377D-02-0.413D-01 0.105D+01
 Coeff:     -0.137D-03 0.187D-03-0.551D-03-0.377D-02-0.413D-01 0.105D+01
 Gap=     0.328 Goal=   None    Shift=    0.000
 RMSDP=6.01D-07 MaxDP=6.69D-06 DE=-6.10D-08 OVMax= 1.77D-05

 Cycle   7  Pass 1  IDiag  1:
 E= -76.3052414431898     Delta-E=       -0.000000001164 Rises=F Damp=F
 DIIS: error= 3.28D-07 at cycle   7 NSaved=   7.
 NSaved= 7 IEnMin= 7 EnMin= -76.3052414431898     IErMin= 7 ErrMin= 3.28D-07
 ErrMax= 3.28D-07  0.00D+00 EMaxC= 1.00D-01 BMatC= 2.10D-12 BMatP= 1.34D-09
 IDIUse=1 WtCom= 1.00D+00 WtEn= 0.00D+00
 Coeff-Com:  0.473D-05-0.181D-05-0.365D-06-0.838D-04-0.833D-02-0.107D+00
 Coeff-Com:  0.112D+01
 Coeff:      0.473D-05-0.181D-05-0.365D-06-0.838D-04-0.833D-02-0.107D+00
 Coeff:      0.112D+01
 Gap=     0.328 Goal=   None    Shift=    0.000
 RMSDP=8.10D-08 MaxDP=6.54D-07 DE=-1.16D-09 OVMax= 1.90D-06

 Cycle   8  Pass 1  IDiag  1:
 E= -76.3052414431959     Delta-E=       -0.000000000006 Rises=F Damp=F
 DIIS: error= 2.24D-08 at cycle   8 NSaved=   8.
 NSaved= 8 IEnMin= 8 EnMin= -76.3052414431959     IErMin= 8 ErrMin= 2.24D-08
 ErrMax= 2.24D-08  0.00D+00 EMaxC= 1.00D-01 BMatC= 5.24D-15 BMatP= 2.10D-12
 IDIUse=1 WtCom= 1.00D+00 WtEn= 0.00D+00
 Coeff-Com:  0.254D-06-0.527D-06 0.740D-05 0.285D-04 0.447D-03 0.437D-02
 Coeff-Com: -0.649D-01 0.106D+01
 Coeff:      0.254D-06-0.527D-06 0.740D-05 0.285D-04 0.447D-03 0.437D-02
 Coeff:     -0.649D-01 0.106D+01
 Gap=     0.328 Goal=   None    Shift=    0.000
 RMSDP=2.20D-09 MaxDP=2.66D-08 DE=-6.11D-12 OVMax= 4.83D-08

 Error on total polarization charges =  0.01475
 SCF Done:  E(RPBE1PBE) =  -76.3052414432     A.U. after    8 cycles
            NFock=  8  Conv=0.22D-08     -V/T= 2.0069
 KE= 7.578476724613D+01 PE=-1.967599358204D+02 EE= 3.656778213928D+01
 Leave Link  502 at Thu Feb 15 23:41:31 2024, MaxMem=  2097152000 cpu:              23.8 elap:               1.6
 (Enter /home/pcmt/gaussian/g16.C.01/g16/l508.exe)
 QCSCF skips out because SCF is already converged.
 Leave Link  508 at Thu Feb 15 23:41:31 2024, MaxMem=  2097152000 cpu:               0.1 elap:               0.1
 (Enter /home/pcmt/gaussian/g16.C.01/g16/l601.exe)
 Copying SCF densities to generalized density rwf, IOpCl= 0 IROHF=0.

 **********************************************************************

            Population analysis using the SCF Density.

 **********************************************************************

 Alpha  occ. eigenvalues --  -19.23477  -1.01670  -0.50041  -0.39509  -0.33166
 Alpha virt. eigenvalues --   -0.00355   0.10553   0.30648   0.34827   0.41514
 Alpha virt. eigenvalues --    0.42837   0.55215   0.55970   1.08315   1.22211
 Alpha virt. eigenvalues --    1.34544   1.55853   1.57910   1.76484   1.94895
 Alpha virt. eigenvalues --    1.96276   2.09886   2.19899   2.38778   2.53288
 Alpha virt. eigenvalues --    2.57676   2.69302   2.74497   3.16441   3.85783
 Alpha virt. eigenvalues --    5.14180   5.18334   5.27586   5.27592   5.28550
 Alpha virt. eigenvalues --    5.59314   5.77057   6.26605   6.27155   6.36401
 Alpha virt. eigenvalues --    6.76992   6.81652  43.30119
     Molecular Orbital Coefficients:
                           1         2         3         4         5
                           O         O         O         O         O
     Eigenvalues --   -19.23477  -1.01670  -0.50041  -0.39509  -0.33166
   1 1   O  1S          0.43541  -0.09564   0.04650  -0.00000  -0.00000
   2        2S          0.63996  -0.22562   0.11175  -0.00000  -0.00000
   3        3S          0.03221   0.32513  -0.17895   0.00000   0.00000
   4        4S         -0.01885   0.45076  -0.22399  -0.00000  -0.00000
   5        5S          0.00629   0.17680  -0.25557   0.00000   0.00000
   6        6PX         0.00000  -0.00000   0.00000  -0.00000   0.47319
   7        6PY         0.00198   0.08246   0.33329  -0.00000  -0.00000
   8        6PZ        -0.00000   0.00000   0.00000   0.42332   0.00000
   9        7PX        -0.00000   0.00000   0.00000  -0.00000   0.38992
  10        7PY        -0.00356   0.08263   0.26481  -0.00000  -0.00000
  11        7PZ         0.00000   0.00000  -0.00000   0.35734   0.00000
  12        8PX        -0.00000  -0.00000   0.00000  -0.00000   0.34080
  13        8PY         0.00081   0.01094   0.13696  -0.00000   0.00000
  14        8PZ        -0.00000   0.00000  -0.00000   0.23495   0.00000
  15        9D 0       -0.00007  -0.00120  -0.00283  -0.00000   0.00000
  16        9D+1        0.00000   0.00000   0.00000   0.00000   0.00000
  17        9D-1       -0.00000   0.00000   0.00000   0.00725  -0.00000
  18        9D+2       -0.00030  -0.00430  -0.00652  -0.00000  -0.00000
  19        9D-2       -0.00000  -0.00000  -0.00000  -0.00000   0.00358
  20       10D 0        0.00035  -0.00574  -0.01083   0.00000   0.00000
  21       10D+1       -0.00000  -0.00000  -0.00000  -0.00000   0.00000
  22       10D-1        0.00000   0.00000  -0.00000   0.02883  -0.00000
  23       10D+2        0.00136  -0.01763  -0.01729   0.00000  -0.00000
  24       10D-2       -0.00000   0.00000  -0.00000   0.00000   0.02608
  25       11F 0       -0.00000  -0.00000   0.00000  -0.00195   0.00000
  26       11F+1        0.00000  -0.00000   0.00000   0.00000   0.00027
  27       11F-1       -0.00002  -0.00064  -0.00202   0.00000  -0.00000
  28       11F+2       -0.00000   0.00000   0.00000  -0.00526   0.00000
  29       11F-2       -0.00000  -0.00000   0.00000  -0.00000  -0.00000
  30       11F+3       -0.00000  -0.00000  -0.00000  -0.00000  -0.00562
  31       11F-3        0.00030  -0.00340  -0.00439   0.00000  -0.00000
  32 2   H  1S          0.00058   0.08537   0.12337   0.09307  -0.00000
  33        2S          0.00142   0.07371   0.19351   0.15207   0.00000
  34        3S         -0.00108   0.00295   0.03929   0.10260  -0.00000
  35        4PX        -0.00000   0.00000  -0.00000  -0.00000   0.02414
  36        4PY        -0.00128  -0.01146  -0.00229  -0.01738   0.00000
  37        4PZ        -0.00056  -0.01226  -0.02230   0.00764  -0.00000
  38 3   H  1S          0.00058   0.08537   0.12337  -0.09307   0.00000
  39        2S          0.00142   0.07371   0.19351  -0.15207  -0.00000
  40        3S         -0.00108   0.00295   0.03929  -0.10260   0.00000
  41        4PX        -0.00000  -0.00000   0.00000  -0.00000   0.02414
  42        4PY        -0.00128  -0.01146  -0.00229   0.01738  -0.00000
  43        4PZ         0.00056   0.01226   0.02230   0.00764  -0.00000
                           6         7         8         9        10
                           V         V         V         V         V
     Eigenvalues --    -0.00355   0.10553   0.30648   0.34827   0.41514
   1 1   O  1S         -0.03000  -0.00000   0.01364  -0.00000  -0.03656
   2        2S         -0.07354  -0.00000   0.03096  -0.00000  -0.07698
   3        3S          0.13458   0.00000  -0.01399  -0.00000  -0.04308
   4        4S          0.11715   0.00000  -0.19471   0.00000   1.06226
   5        5S          0.68750  -0.00000  -0.04182  -0.00000  -0.92128
   6        6PX        -0.00000   0.00000  -0.00000  -0.00000  -0.00000
   7        6PY         0.28148   0.00000  -0.23392  -0.00000  -0.22801
   8        6PZ         0.00000  -0.25303   0.00000   0.02362   0.00000
   9        7PX        -0.00000   0.00000   0.00000  -0.00000  -0.00000
  10        7PY         0.23818  -0.00000  -0.37458  -0.00000  -0.51553
  11        7PZ         0.00000  -0.17928  -0.00000   0.00973   0.00000
  12        8PX         0.00000  -0.00000  -0.00000   0.00000   0.00000
  13        8PY         0.47362  -0.00000  -0.42805  -0.00000   1.21147
  14        8PZ         0.00000  -0.49438  -0.00000   0.48974  -0.00000
  15        9D 0        0.00018  -0.00000  -0.00375  -0.00000   0.00360
  16        9D+1        0.00000   0.00000   0.00000   0.00000   0.00000
  17        9D-1       -0.00000   0.00450   0.00000  -0.02112   0.00000
  18        9D+2        0.00167  -0.00000  -0.01483  -0.00000   0.00917
  19        9D-2       -0.00000  -0.00000  -0.00000  -0.00000  -0.00000
  20       10D 0       -0.00623   0.00000   0.00083  -0.00000  -0.00633
  21       10D+1       -0.00000  -0.00000  -0.00000  -0.00000  -0.00000
  22       10D-1        0.00000   0.02630  -0.00000   0.02101   0.00000
  23       10D+2       -0.01036   0.00000   0.02123  -0.00000  -0.02731
  24       10D-2        0.00000  -0.00000   0.00000  -0.00000   0.00000
  25       11F 0       -0.00000  -0.00273   0.00000  -0.00408  -0.00000
  26       11F+1       -0.00000  -0.00000  -0.00000  -0.00000   0.00000
  27       11F-1       -0.00178  -0.00000  -0.00016   0.00000   0.00161
  28       11F+2       -0.00000  -0.00255   0.00000  -0.00646  -0.00000
  29       11F-2        0.00000   0.00000  -0.00000   0.00000   0.00000
  30       11F+3       -0.00000   0.00000   0.00000   0.00000   0.00000
  31       11F-3       -0.00282   0.00000   0.00467  -0.00000  -0.00152
  32 2   H  1S         -0.07085   0.10807   0.09720  -0.12244  -0.00315
  33        2S         -0.18922   0.16833   1.06800  -1.30148  -0.25717
  34        3S         -0.63323   1.78450  -0.78033   1.51744   0.06187
  35        4PX        -0.00000   0.00000  -0.00000  -0.00000   0.00000
  36        4PY        -0.03096   0.01839   0.00293   0.04077   0.03449
  37        4PZ         0.00032   0.02903  -0.03725   0.03863   0.01083
  38 3   H  1S         -0.07085  -0.10807   0.09720   0.12244  -0.00315
  39        2S         -0.18922  -0.16833   1.06800   1.30148  -0.25717
  40        3S         -0.63323  -1.78450  -0.78033  -1.51744   0.06187
  41        4PX        -0.00000   0.00000  -0.00000  -0.00000  -0.00000
  42        4PY        -0.03096  -0.01839   0.00293  -0.04077   0.03449
  43        4PZ        -0.00032   0.02903   0.03725   0.03863  -0.01083
                          11        12        13        14        15
                           V         V         V         V         V
     Eigenvalues --     0.42837   0.55215   0.55970   1.08315   1.22211
   1 1   O  1S          0.00000  -0.00000   0.04280  -0.00000   0.00192
   2        2S          0.00000  -0.00000   0.08867  -0.00000   0.00532
   3        3S         -0.00000  -0.00000   0.10069  -0.00000  -0.01943
   4        4S          0.00000   0.00000  -2.00634   0.00000  -0.16402
   5        5S         -0.00000  -0.00000   3.74356  -0.00000   0.79216
   6        6PX        -0.31685  -0.00000  -0.00000  -0.07957  -0.00000
   7        6PY         0.00000   0.00000  -0.14681  -0.00000  -0.03962
   8        6PZ         0.00000   0.31579   0.00000   0.00000   0.00000
   9        7PX        -0.70949   0.00000  -0.00000   0.02367   0.00000
  10        7PY         0.00000   0.00000  -0.25576   0.00000   0.09190
  11        7PZ         0.00000   0.73783   0.00000   0.00000   0.00000
  12        8PX         1.22696  -0.00000   0.00000  -0.29124   0.00000
  13        8PY        -0.00000  -0.00000   1.84395   0.00000   0.49937
  14        8PZ        -0.00000  -1.71013  -0.00000  -0.00000  -0.00000
  15        9D 0       -0.00000  -0.00000   0.00728   0.00000   0.00131
  16        9D+1       -0.00000  -0.00000   0.00000   0.00000   0.00000
  17        9D-1        0.00000   0.00665   0.00000   0.00000  -0.00000
  18        9D+2       -0.00000  -0.00000   0.02448   0.00000   0.00028
  19        9D-2       -0.00528  -0.00000   0.00000   0.00505   0.00000
  20       10D 0        0.00000   0.00000  -0.01104  -0.00000  -0.55782
  21       10D+1        0.00000  -0.00000  -0.00000  -0.00000  -0.00000
  22       10D-1        0.00000  -0.02633  -0.00000  -0.00000   0.00000
  23       10D+2        0.00000   0.00000  -0.06804  -0.00000  -0.00618
  24       10D-2        0.00732  -0.00000   0.00000   0.47498  -0.00000
  25       11F 0        0.00000   0.00215   0.00000   0.00000  -0.00000
  26       11F+1       -0.00023   0.00000  -0.00000  -0.00266   0.00000
  27       11F-1        0.00000  -0.00000   0.00177  -0.00000  -0.01044
  28       11F+2        0.00000   0.00256   0.00000   0.00000  -0.00000
  29       11F-2        0.00000   0.00000   0.00000  -0.00000   0.00000
  30       11F+3        0.00241  -0.00000   0.00000  -0.00552   0.00000
  31       11F-3        0.00000   0.00000  -0.00906  -0.00000  -0.00617
  32 2   H  1S         -0.00000  -0.06683   0.02879  -0.00000   0.07104
  33        2S          0.00000  -0.23496  -0.71491  -0.00000  -0.69807
  34        3S          0.00000   1.85829  -0.72218   0.00000   0.08400
  35        4PX         0.01109  -0.00000  -0.00000   0.46222  -0.00000
  36        4PY        -0.00000  -0.02656   0.06574   0.00000   0.23122
  37        4PZ         0.00000  -0.00427   0.05419  -0.00000  -0.37817
  38 3   H  1S          0.00000   0.06683   0.02879   0.00000   0.07104
  39        2S          0.00000   0.23496  -0.71491  -0.00000  -0.69807
  40        3S         -0.00000  -1.85829  -0.72218  -0.00000   0.08400
  41        4PX         0.01109  -0.00000   0.00000   0.46222  -0.00000
  42        4PY        -0.00000   0.02656   0.06574   0.00000   0.23122
  43        4PZ         0.00000  -0.00427  -0.05419  -0.00000   0.37817
                          16        17        18        19        20
                           V         V         V         V         V
     Eigenvalues --     1.34544   1.55853   1.57910   1.76484   1.94895
   1 1   O  1S          0.00000  -0.00000  -0.01646  -0.00773   0.00000
   2        2S          0.00000  -0.00000  -0.04597  -0.02255   0.00000
   3        3S          0.00000   0.00000   0.15947   0.09153  -0.00000
   4        4S         -0.00000  -0.00000   0.07827  -0.13991   0.00000
   5        5S          0.00000  -0.00000  -0.67496   0.34272  -0.00000
   6        6PX         0.00000  -0.00000  -0.00000   0.00000  -0.00000
   7        6PY         0.00000   0.00000   0.18034   0.08339  -0.00000
   8        6PZ        -0.00000   0.06884  -0.00000   0.00000   0.00000
   9        7PX        -0.00000   0.00000   0.00000  -0.00000   0.00000
  10        7PY        -0.00000  -0.00000  -0.03837   0.01819   0.00000
  11        7PZ         0.00000  -0.03397  -0.00000   0.00000  -0.00000
  12        8PX        -0.00000   0.00000  -0.00000   0.00000   0.00000
  13        8PY         0.00000  -0.00000  -0.69914   0.05610  -0.00000
  14        8PZ        -0.00000  -0.15103   0.00000   0.00000   0.00000
  15        9D 0       -0.00000  -0.00000   0.00586  -0.00726   0.00000
  16        9D+1       -0.00577   0.00000   0.00000  -0.00000   0.00279
  17        9D-1        0.00000  -0.00634   0.00000  -0.00000  -0.00000
  18        9D+2       -0.00000  -0.00000   0.00377   0.00250  -0.00000
  19        9D-2        0.00000   0.00000  -0.00000   0.00000  -0.00000
  20       10D 0       -0.00000   0.00000  -0.20123   0.85656   0.00000
  21       10D+1        0.76950   0.00000  -0.00000   0.00000  -0.70285
  22       10D-1        0.00000  -0.84516  -0.00000   0.00000   0.00000
  23       10D+2        0.00000   0.00000   0.82171   0.12238   0.00000
  24       10D-2        0.00000   0.00000   0.00000   0.00000   0.00000
  25       11F 0       -0.00000   0.00439   0.00000  -0.00000  -0.00000
  26       11F+1       -0.00000   0.00000  -0.00000   0.00000  -0.00000
  27       11F-1       -0.00000  -0.00000   0.00469  -0.00916  -0.00000
  28       11F+2       -0.00000   0.00782   0.00000  -0.00000  -0.00000
  29       11F-2        0.01252  -0.00000   0.00000   0.00000   0.02623
  30       11F+3       -0.00000  -0.00000   0.00000   0.00000   0.00000
  31       11F-3        0.00000   0.00000   0.01426  -0.00453  -0.00000
  32 2   H  1S          0.00000  -0.25021  -0.36001  -0.12132   0.00000
  33        2S         -0.00000   1.21548   1.10631  -0.02521  -0.00000
  34        3S          0.00000  -0.65098  -0.28731  -0.08035   0.00000
  35        4PX         0.37638   0.00000  -0.00000  -0.00000   0.74828
  36        4PY        -0.00000   0.26545   0.12337   0.32317   0.00000
  37        4PZ         0.00000  -0.16694   0.15124  -0.39226  -0.00000
  38 3   H  1S         -0.00000   0.25021  -0.36001  -0.12132  -0.00000
  39        2S          0.00000  -1.21548   1.10631  -0.02521   0.00000
  40        3S         -0.00000   0.65098  -0.28731  -0.08035  -0.00000
  41        4PX        -0.37638  -0.00000  -0.00000   0.00000  -0.74828
  42        4PY         0.00000  -0.26545   0.12337   0.32317  -0.00000
  43        4PZ         0.00000  -0.16694  -0.15124   0.39226   0.00000
                          21        22        23        24        25
                           V         V         V         V         V
     Eigenvalues --     1.96276   2.09886   2.19899   2.38778   2.53288
   1 1   O  1S         -0.00000  -0.00000  -0.02347  -0.00000   0.04021
   2        2S         -0.00000  -0.00000  -0.07142  -0.00000   0.10522
   3        3S          0.00000   0.00000   0.35571   0.00000  -0.15690
   4        4S         -0.00000  -0.00000  -0.74788  -0.00000  -0.55918
   5        5S          0.00000   0.00000   1.61261   0.00000  -1.45020
   6        6PX         0.14812  -0.00000   0.00000   0.00000  -0.00000
   7        6PY         0.00000   0.00000   0.71725  -0.00000  -0.01751
   8        6PZ        -0.00000  -0.07056   0.00000   0.71500   0.00000
   9        7PX        -0.14381   0.00000  -0.00000  -0.00000   0.00000
  10        7PY        -0.00000  -0.00000  -0.56589   0.00000  -1.23864
  11        7PZ        -0.00000  -0.39243   0.00000  -0.82667  -0.00000
  12        8PX         0.36492  -0.00000   0.00000   0.00000  -0.00000
  13        8PY        -0.00000   0.00000   1.06838   0.00000  -0.77816
  14        8PZ        -0.00000  -0.17676   0.00000   0.89174   0.00000
  15        9D 0       -0.00000  -0.00000   0.00023   0.00000  -0.01664
  16        9D+1        0.00000   0.00000  -0.00000   0.00000   0.00000
  17        9D-1        0.00000   0.03330  -0.00000  -0.00455   0.00000
  18        9D+2       -0.00000  -0.00000   0.00597   0.00000  -0.05988
  19        9D-2       -0.00282  -0.00000   0.00000   0.00000  -0.00000
  20       10D 0        0.00000   0.00000  -0.22736  -0.00000   0.14759
  21       10D+1        0.00000  -0.00000  -0.00000   0.00000  -0.00000
  22       10D-1       -0.00000  -0.33579   0.00000   0.79357   0.00000
  23       10D+2        0.00000  -0.00000  -0.86138  -0.00000   0.60776
  24       10D-2        1.00786  -0.00000  -0.00000   0.00000   0.00000
  25       11F 0        0.00000   0.07766  -0.00000   0.00233  -0.00000
  26       11F+1       -0.00213  -0.00000   0.00000   0.00000   0.00000
  27       11F-1       -0.00000  -0.00000  -0.00591   0.00000   0.00315
  28       11F+2       -0.00000   0.11284  -0.00000   0.02778   0.00000
  29       11F-2       -0.00000   0.00000   0.00000   0.00000   0.00000
  30       11F+3        0.01678  -0.00000   0.00000   0.00000   0.00000
  31       11F-3        0.00000   0.00000   0.01066  -0.00000   0.12699
  32 2   H  1S         -0.00000  -0.92011  -0.49030  -0.39306  -0.80504
  33        2S          0.00000   1.92010  -0.11898   0.45687   2.04321
  34        3S         -0.00000  -0.93686  -0.40479  -0.82481  -0.22430
  35        4PX        -0.58611   0.00000   0.00000  -0.00000  -0.00000
  36        4PY        -0.00000  -0.59909   0.34727   0.55635  -0.96584
  37        4PZ        -0.00000  -0.02016   0.16709  -0.39067  -0.42288
  38 3   H  1S          0.00000   0.92011  -0.49030   0.39306  -0.80504
  39        2S         -0.00000  -1.92010  -0.11898  -0.45687   2.04321
  40        3S          0.00000   0.93686  -0.40479   0.82481  -0.22430
  41        4PX        -0.58611  -0.00000  -0.00000  -0.00000  -0.00000
  42        4PY         0.00000   0.59909   0.34727  -0.55635  -0.96584
  43        4PZ        -0.00000  -0.02016  -0.16709  -0.39067   0.42288
                          26        27        28        29        30
                           V         V         V         V         V
     Eigenvalues --     2.57676   2.69302   2.74497   3.16441   3.85783
   1 1   O  1S         -0.00000   0.10935   0.00000  -0.00000   0.06045
   2        2S         -0.00000   0.37665   0.00000  -0.00000   0.22997
   3        3S         -0.00000  -2.48012  -0.00000   0.00000  -2.16278
   4        4S          0.00000   3.57570   0.00000  -0.00000   3.65936
   5        5S          0.00000  -1.90233  -0.00000  -0.00000  -0.29079
   6        6PX        -1.19703   0.00000  -0.00000  -0.00000  -0.00000
   7        6PY         0.00000   0.59121   0.00000   0.00000  -0.85519
   8        6PZ         0.00000   0.00000  -0.69141   0.72327   0.00000
   9        7PX         1.61295  -0.00000   0.00000  -0.00000   0.00000
  10        7PY         0.00000  -0.68575  -0.00000  -0.00000   2.58686
  11        7PZ        -0.00000  -0.00000   0.67101  -1.86191  -0.00000
  12        8PX        -0.64370   0.00000  -0.00000  -0.00000  -0.00000
  13        8PY         0.00000   0.08485   0.00000   0.00000  -0.11284
  14        8PZ         0.00000   0.00000  -0.41637   0.32051   0.00000
  15        9D 0        0.00000   0.00256   0.00000  -0.00000   0.00578
  16        9D+1       -0.00000   0.00000   0.00000  -0.00000   0.00000
  17        9D-1        0.00000  -0.00000   0.03309   0.04654   0.00000
  18        9D+2        0.00000   0.01465   0.00000   0.00000  -0.00683
  19        9D-2       -0.00254   0.00000  -0.00000  -0.00000   0.00000
  20       10D 0       -0.00000   0.04771   0.00000   0.00000  -0.25754
  21       10D+1        0.00000   0.00000  -0.00000   0.00000   0.00000
  22       10D-1        0.00000   0.00000  -0.03171  -1.15956  -0.00000
  23       10D+2       -0.00000   0.17040   0.00000   0.00000  -1.03439
  24       10D-2        0.13913  -0.00000  -0.00000  -0.00000   0.00000
  25       11F 0       -0.00000   0.00000   0.00458  -0.04885  -0.00000
  26       11F+1        0.00023   0.00000   0.00000  -0.00000  -0.00000
  27       11F-1       -0.00000   0.00301   0.00000   0.00000  -0.04962
  28       11F+2        0.00000  -0.00000   0.07230  -0.03140  -0.00000
  29       11F-2       -0.00000  -0.00000  -0.00000   0.00000  -0.00000
  30       11F+3        0.01005  -0.00000   0.00000   0.00000   0.00000
  31       11F-3       -0.00000  -0.03302  -0.00000  -0.00000   0.22800
  32 2   H  1S          0.00000   0.28472  -0.18675   0.16182  -0.42581
  33        2S         -0.00000  -0.22563   1.38757   1.90048  -1.00918
  34        3S          0.00000   0.27684  -0.13720  -0.70620   0.20040
  35        4PX        -0.14926  -0.00000   0.00000  -0.00000  -0.00000
  36        4PY         0.00000   0.03474  -0.01569  -1.01291   1.03077
  37        4PZ         0.00000   0.00400  -1.24067  -0.94165   0.44168
  38 3   H  1S          0.00000   0.28472   0.18675  -0.16182  -0.42581
  39        2S         -0.00000  -0.22563  -1.38757  -1.90048  -1.00918
  40        3S          0.00000   0.27684   0.13720   0.70620   0.20040
  41        4PX        -0.14926   0.00000  -0.00000   0.00000  -0.00000
  42        4PY         0.00000   0.03474   0.01569   1.01291   1.03077
  43        4PZ        -0.00000  -0.00400  -1.24067  -0.94165  -0.44168
                          31        32        33        34        35
                           V         V         V         V         V
     Eigenvalues --     5.14180   5.18334   5.27586   5.27592   5.28550
   1 1   O  1S         -0.00000   0.00000   0.00000   0.00000   0.00118
   2        2S         -0.00000   0.00000   0.00000   0.00000   0.00507
   3        3S          0.00000  -0.00000  -0.00000  -0.00000  -0.06690
   4        4S         -0.00000   0.00000   0.00000   0.00000   0.09635
   5        5S         -0.00000   0.00000  -0.00000   0.00000   0.18842
   6        6PX         0.00389  -0.00000   0.00000   0.02968  -0.00000
   7        6PY         0.00000  -0.00000   0.00000  -0.00000  -0.01961
   8        6PZ        -0.00000  -0.00411  -0.00000  -0.00000  -0.00000
   9        7PX        -0.00672   0.00000  -0.00000  -0.04690   0.00000
  10        7PY        -0.00000   0.00000  -0.00000   0.00000   0.11731
  11        7PZ        -0.00000  -0.03841   0.00000   0.00000   0.00000
  12        8PX        -0.00750  -0.00000  -0.00000  -0.06311   0.00000
  13        8PY        -0.00000   0.00000  -0.00000   0.00000   0.10849
  14        8PZ        -0.00000   0.01539  -0.00000  -0.00000  -0.00000
  15        9D 0       -0.00000   0.00000   0.00000   0.00000   0.12483
  16        9D+1        0.00000   0.00000   0.10741  -0.00000   0.00000
  17        9D-1        0.00000   0.03380   0.00000   0.00000   0.00000
  18        9D+2        0.00000   0.00000   0.00000  -0.00000   0.01268
  19        9D-2       -0.02431  -0.00000  -0.00000  -0.18069   0.00000
  20       10D 0        0.00000  -0.00000  -0.00000   0.00000  -0.00498
  21       10D+1       -0.00000  -0.00000   0.01009  -0.00000  -0.00000
  22       10D-1       -0.00000  -0.02897  -0.00000  -0.00000   0.00000
  23       10D+2        0.00000  -0.00000  -0.00000  -0.00000  -0.05617
  24       10D-2        0.00127  -0.00000  -0.00000  -0.02471   0.00000
  25       11F 0        0.00000   0.82629   0.00000  -0.00000  -0.00000
  26       11F+1        0.99218  -0.00000  -0.00000  -0.12472   0.00000
  27       11F-1       -0.00000   0.00000  -0.00000   0.00000   1.01402
  28       11F+2       -0.00000  -0.56597  -0.00000   0.00000   0.00000
  29       11F-2        0.00000  -0.00000   1.01459  -0.00000   0.00000
  30       11F+3        0.12539   0.00000   0.00000   0.99953  -0.00000
  31       11F-3       -0.00000   0.00000   0.00000  -0.00000   0.10234
  32 2   H  1S          0.00000  -0.02419  -0.00000  -0.00000   0.01858
  33        2S          0.00000   0.22111   0.00000  -0.00000  -0.21470
  34        3S         -0.00000  -0.07891   0.00000   0.00000   0.02236
  35        4PX         0.02057   0.00000  -0.18972   0.16542  -0.00000
  36        4PY        -0.00000   0.00594   0.00000   0.00000   0.13849
  37        4PZ        -0.00000  -0.17774  -0.00000   0.00000  -0.11587
  38 3   H  1S         -0.00000   0.02419   0.00000  -0.00000   0.01858
  39        2S         -0.00000  -0.22111  -0.00000  -0.00000  -0.21470
  40        3S          0.00000   0.07891  -0.00000   0.00000   0.02236
  41        4PX         0.02057  -0.00000   0.18972   0.16542  -0.00000
  42        4PY        -0.00000  -0.00594  -0.00000   0.00000   0.13849
  43        4PZ        -0.00000  -0.17774  -0.00000   0.00000   0.11587
                          36        37        38        39        40
                           V         V         V         V         V
     Eigenvalues --     5.59314   5.77057   6.26605   6.27155   6.36401
   1 1   O  1S          0.02230   0.00000  -0.00076  -0.00000  -0.00000
   2        2S          0.07589   0.00000  -0.00295  -0.00000   0.00000
   3        3S         -0.83822  -0.00000   0.04057   0.00000  -0.00000
   4        4S          1.44389   0.00000  -0.06448  -0.00000   0.00000
   5        5S          0.08493  -0.00000  -0.08138  -0.00000  -0.00000
   6        6PX        -0.00000   0.00000   0.00000   0.00000   0.01591
   7        6PY        -0.33883  -0.00000   0.01554   0.00000  -0.00000
   8        6PZ        -0.00000   0.15983   0.00000   0.00000   0.00000
   9        7PX         0.00000  -0.00000  -0.00000  -0.00000  -0.04489
  10        7PY         1.15585   0.00000  -0.06790  -0.00000   0.00000
  11        7PZ         0.00000  -0.57703  -0.00000   0.00000  -0.00000
  12        8PX        -0.00000   0.00000   0.00000  -0.00000  -0.06174
  13        8PY         0.02081  -0.00000  -0.04436  -0.00000  -0.00000
  14        8PZ        -0.00000   0.02623  -0.00000   0.00000   0.00000
  15        9D 0       -0.10613  -0.00000   1.12309   0.00000   0.00000
  16        9D+1        0.00000   0.00000  -0.00000   1.16455  -0.00000
  17        9D-1        0.00000  -0.54331   0.00000  -0.00000  -0.00000
  18        9D+2       -0.41732  -0.00000  -0.30456  -0.00000   0.00000
  19        9D-2        0.00000  -0.00000  -0.00000   0.00000   1.16876
  20       10D 0       -0.09315  -0.00000  -0.59874  -0.00000  -0.00000
  21       10D+1       -0.00000  -0.00000   0.00000  -0.62501   0.00000
  22       10D-1        0.00000  -0.22150  -0.00000   0.00000   0.00000
  23       10D+2       -0.31802  -0.00000   0.17694   0.00000  -0.00000
  24       10D-2        0.00000   0.00000   0.00000  -0.00000  -0.71279
  25       11F 0       -0.00000   0.55562   0.00000  -0.00000   0.00000
  26       11F+1        0.00000  -0.00000  -0.00000  -0.00000   0.00136
  27       11F-1        0.09941   0.00000  -0.12610  -0.00000  -0.00000
  28       11F+2       -0.00000   0.77823   0.00000   0.00000   0.00000
  29       11F-2       -0.00000   0.00000   0.00000  -0.11406   0.00000
  30       11F+3       -0.00000   0.00000   0.00000   0.00000   0.19973
  31       11F-3       -0.93517  -0.00000  -0.00927  -0.00000  -0.00000
  32 2   H  1S         -0.33914   0.25706  -0.00318   0.00000  -0.00000
  33        2S         -0.36714   0.57576   0.09752   0.00000   0.00000
  34        3S          0.01337  -0.15879  -0.00971  -0.00000  -0.00000
  35        4PX        -0.00000  -0.00000  -0.00000   0.10277   0.16650
  36        4PY         0.51740  -0.46127  -0.07436  -0.00000  -0.00000
  37        4PZ         0.24152  -0.38484   0.05633   0.00000  -0.00000
  38 3   H  1S         -0.33914  -0.25706  -0.00318  -0.00000  -0.00000
  39        2S         -0.36714  -0.57576   0.09752   0.00000  -0.00000
  40        3S          0.01337   0.15879  -0.00971  -0.00000   0.00000
  41        4PX        -0.00000  -0.00000   0.00000  -0.10277   0.16650
  42        4PY         0.51740   0.46127  -0.07436  -0.00000   0.00000
  43        4PZ        -0.24152  -0.38484  -0.05633  -0.00000  -0.00000
                          41        42        43
                           V         V         V
     Eigenvalues --     6.76992   6.81652  43.30119
   1 1   O  1S          0.00000  -0.01719  -1.39024
   2        2S          0.00000  -0.05504   1.69455
   3        3S         -0.00000   0.67737  -1.55321
   4        4S          0.00000  -1.03459   1.56905
   5        5S          0.00000  -0.77293  -0.53914
   6        6PX        -0.00000   0.00000   0.00000
   7        6PY        -0.00000   0.30687  -0.06621
   8        6PZ        -0.15836  -0.00000   0.00000
   9        7PX         0.00000  -0.00000  -0.00000
  10        7PY         0.00000  -1.12061   0.29047
  11        7PZ         0.58896   0.00000   0.00000
  12        8PX         0.00000  -0.00000  -0.00000
  13        8PY         0.00000  -0.48158  -0.04629
  14        8PZ         0.17825   0.00000  -0.00000
  15        9D 0        0.00000  -0.30378   0.00568
  16        9D+1       -0.00000   0.00000  -0.00000
  17        9D-1       -1.09116  -0.00000  -0.00000
  18        9D+2        0.00000  -1.11241   0.02423
  19        9D-2       -0.00000   0.00000   0.00000
  20       10D 0       -0.00000   0.35992  -0.03515
  21       10D+1        0.00000  -0.00000   0.00000
  22       10D-1        1.22375   0.00000   0.00000
  23       10D+2       -0.00000   1.26049  -0.13489
  24       10D-2        0.00000  -0.00000   0.00000
  25       11F 0       -0.33588  -0.00000  -0.00000
  26       11F+1        0.00000  -0.00000  -0.00000
  27       11F-1       -0.00000   0.00606   0.00265
  28       11F+2       -0.54177  -0.00000  -0.00000
  29       11F-2        0.00000  -0.00000   0.00000
  30       11F+3       -0.00000   0.00000   0.00000
  31       11F-3       -0.00000   0.47584  -0.03769
  32 2   H  1S         -0.27757   0.36763  -0.05428
  33        2S         -0.76267   0.72497  -0.13976
  34        3S          0.13572   0.00372   0.09340
  35        4PX        -0.00000   0.00000  -0.00000
  36        4PY         0.52306  -0.49396   0.13039
  37        4PZ         0.19753  -0.26154   0.05735
  38 3   H  1S          0.27757   0.36763  -0.05428
  39        2S          0.76267   0.72497  -0.13976
  40        3S         -0.13572   0.00372   0.09340
  41        4PX        -0.00000   0.00000   0.00000
  42        4PY        -0.52306  -0.49396   0.13039
  43        4PZ         0.19753   0.26154  -0.05735
          Condensed to atoms (all electrons):
               1          2          3
     1  O    8.259172   0.202964   0.202964
     2  H    0.202964   0.442922   0.021565
     3  H    0.202964   0.021565   0.442922
 Mulliken charges:
               1
     1  O   -0.665099
     2  H    0.332549
     3  H    0.332549
 Sum of Mulliken charges =  -0.00000
 Mulliken charges with hydrogens summed into heavy atoms:
               1
     1  O   -0.000000
 Electronic spatial extent (au):  <R**2>=             21.7910
 Charge=             -0.0000 electrons
 Dipole moment (field-independent basis, Debye):
    X=             -0.0000    Y=              3.3861    Z=             -0.0000  Tot=              3.3861
 Quadrupole moment (field-independent basis, Debye-Ang):
   XX=             -7.8433   YY=             -2.9579   ZZ=             -6.5005
   XY=             -0.0000   XZ=              0.0000   YZ=             -0.0000
 Traceless Quadrupole moment (field-independent basis, Debye-Ang):
   XX=             -2.0760   YY=              2.8093   ZZ=             -0.7333
   XY=             -0.0000   XZ=              0.0000   YZ=             -0.0000
 Octapole moment (field-independent basis, Debye-Ang**2):
  XXX=             -0.0000  YYY=              1.0904  ZZZ=             -0.0000  XYY=             -0.0000
  XXY=             -0.9938  XXZ=             -0.0000  XZZ=             -0.0000  YZZ=             -0.0761
  YYZ=             -0.0000  XYZ=              0.0000
 Hexadecapole moment (field-independent basis, Debye-Ang**3):
 XXXX=             -6.8408 YYYY=             -6.2194 ZZZZ=             -7.6451 XXXY=             -0.0000
 XXXZ=              0.0000 YYYX=             -0.0000 YYYZ=             -0.0000 ZZZX=              0.0000
 ZZZY=             -0.0000 XXYY=             -2.9362 XXZZ=             -2.4610 YYZZ=             -1.9677
 XXYZ=             -0.0000 YYXZ=              0.0000 ZZXY=             -0.0000
 N-N= 8.102144991790D+00 E-N=-1.967599360739D+02  KE= 7.578476724613D+01
 Orbital energies and kinetic energies (alpha):
                                 1                 2
   1         O               -19.234771         29.120019
   2         O                -1.016703          2.551432
   3         O                -0.500409          1.982132
   4         O                -0.395089          1.975913
   5         O                -0.331664          2.262887
   6         V                -0.003550          1.249967
   7         V                 0.105532          0.951151
   8         V                 0.306484          1.321561
   9         V                 0.348274          0.925356
  10         V                 0.415140          1.413024
  11         V                 0.428367          1.554767
  12         V                 0.552148          1.669486
  13         V                 0.559700          1.394957
  14         V                 1.083149          1.869033
  15         V                 1.222113          1.989068
  16         V                 1.345436          2.100463
  17         V                 1.558529          2.439254
  18         V                 1.579104          2.688646
  19         V                 1.764840          2.616466
  20         V                 1.948950          2.662200
  21         V                 1.962763          2.796908
  22         V                 2.098857          3.488481
  23         V                 2.198994          4.811520
  24         V                 2.387783          4.612235
  25         V                 2.532885          4.018717
  26         V                 2.576761          6.879357
  27         V                 2.693019          7.239403
  28         V                 2.744971          4.699690
  29         V                 3.164412          5.010737
  30         V                 3.857832          7.037647
  31         V                 5.141798          6.429960
  32         V                 5.183345          6.462679
  33         V                 5.275863          6.626943
  34         V                 5.275919          6.682982
  35         V                 5.285499          6.682005
  36         V                 5.593137          7.668101
  37         V                 5.770575          7.778356
  38         V                 6.266054          9.303332
  39         V                 6.271546          9.303587
  40         V                 6.364012          9.370888
  41         V                 6.769920          9.459659
  42         V                 6.816516          9.798938
  43         V                43.301192        108.261612
 Total kinetic energy from orbitals= 7.578476724613D+01
 No NMR shielding tensors so no spin-rotation constants.
 Leave Link  601 at Thu Feb 15 23:41:32 2024, MaxMem=  2097152000 cpu:               3.9 elap:               0.4
 (Enter /home/pcmt/gaussian/g16.C.01/g16/l701.exe)
 ... and contract with generalized density number  0.
 Compute integral first derivatives.
 D1PCM: C-PCM CHGder 1st derivatives, ID1Alg=3 FixD1E=F DoIter=F DoCFld=F I1PDM=0.
 GePol: Maximum number of non-zero 1st derivatives   =     171
 Leave Link  701 at Thu Feb 15 23:41:33 2024, MaxMem=  2097152000 cpu:               7.2 elap:               0.6
 (Enter /home/pcmt/gaussian/g16.C.01/g16/l702.exe)
 L702 exits ... SP integral derivatives will be done elsewhere.
 Leave Link  702 at Thu Feb 15 23:41:33 2024, MaxMem=  2097152000 cpu:               0.2 elap:               0.1
 (Enter /home/pcmt/gaussian/g16.C.01/g16/l703.exe)
 Integral derivatives from FoFJK, PRISM(SPDF).
 Compute integral first derivatives, UseDBF=F ICtDFT=           0.
 Calling FoFJK, ICntrl=      2127 FMM=F ISym2X=0 I1Cent= 0 IOpClX= 0 NMat=1 NMatS=1 NMatT=0.
 FoFJK:  IHMeth= 1 ICntrl=    2127 DoSepK=F KAlg= 0 I1Cent=           0 FoldK=F
 IRaf=         0 NMat=       1 IRICut=       1 DoRegI=T DoRafI=F ISym2E= 0 IDoP0=0 IntGTp=1.
 FoFCou: FMM=F IPFlag=           0 FMFlag=      100000 FMFlg1=         800
         NFxFlg=           0 DoJE=F BraDBF=F KetDBF=F FulRan=T
         wScrn=  0.000000 ICntrl=      2127 IOpCl=  0 I1Cent=           0 NGrid=           0
         NMat0=    1 NMatS0=      1 NMatT0=    0 NMatD0=    1 NMtDS0=    0 NMtDT0=    0
 Symmetry not used in FoFCou.
 Leave Link  703 at Thu Feb 15 23:41:34 2024, MaxMem=  2097152000 cpu:               9.5 elap:               0.8
 (Enter /home/pcmt/gaussian/g16.C.01/g16/l716.exe)
 Dipole        =-4.32896822D-16 1.33221133D+00-2.37587727D-14
 -------------------------------------------------------------------
 Center     Atomic                   Forces (Hartrees/Bohr)
 Number     Number              X              Y              Z
 -------------------------------------------------------------------
      1        8          -0.000000000    0.151985685    0.000000000
      2        1           0.000000000   -0.075992843    0.038366560
      3        1           0.000000000   -0.075992843   -0.038366560
 -------------------------------------------------------------------
 Cartesian Forces:  Max     0.151985685 RMS     0.064630109
 Leave Link  716 at Thu Feb 15 23:41:34 2024, MaxMem=  2097152000 cpu:               0.3 elap:               0.1
 (Enter /home/pcmt/gaussian/g16.C.01/g16/l103.exe)

 GradGradGradGradGradGradGradGradGradGradGradGradGradGradGradGradGradGrad
 Berny optimization.
 FormGI is forming the generalized inverse of G from B-inverse, IUseBI=4.
 Internal  Forces:  Max     0.144305120 RMS     0.093072893
 Search for a local minimum.
 Step number   1 out of a maximum of   20
 All quantities printed in internal units (Hartrees-Bohrs-Radians)
 RMS Force = .93073D-01 SwitMx=.10000D-02 MixMth= 1
 Mixed Optimization -- RFO/linear search
 Second derivative matrix not updated -- first step.
 The second derivative matrix:
                          R1        R2        A1
           R1           0.31764
           R2           0.00000   0.31764
           A1           0.00000   0.00000   0.16000
 ITU=  0
     Eigenvalues ---    0.16000   0.31764   0.31764
 RFO step:  Lambda=-9.43906061D-02 EMin= 1.60000000D-01
 Linear search not attempted -- first point.
 Maximum step size (   0.300) exceeded in Quadratic search.
    -- Step size scaled by   0.506
 Iteration  1 RMS(Cart)=  0.14938894 RMS(Int)=  0.04782355
 Iteration  2 RMS(Cart)=  0.05887319 RMS(Int)=  0.00141821
 Iteration  3 RMS(Cart)=  0.00120085 RMS(Int)=  0.00000019
 Iteration  4 RMS(Cart)=  0.00000023 RMS(Int)=  0.00000000
 ITry= 1 IFail=0 DXMaxC= 2.25D-01 DCOld= 1.00D+10 DXMaxT= 3.00D-01 DXLimC= 3.00D+00 Rises=F
 Variable       Old X    -DE/DX   Delta X   Delta X   Delta X     New X
                                 (Linear)    (Quad)   (Total)
    R1        2.11278  -0.05081   0.00000  -0.06234  -0.06234   2.05044
    R2        2.11278  -0.05081   0.00000  -0.06234  -0.06234   2.05044
    A1        0.92730   0.14431   0.00000   0.28675   0.28675   1.21405
         Item               Value     Threshold  Converged?
 Maximum Force            0.144305     0.000450     NO 
 RMS     Force            0.093073     0.000300     NO 
 Maximum Displacement     0.224760     0.001800     NO 
 RMS     Displacement     0.207537     0.001200     NO 
 Predicted change in Energy=-3.990257D-02
 Lowest energy point so far.  Saving SCF results.
 GradGradGradGradGradGradGradGradGradGradGradGradGradGradGradGradGradGrad

 Leave Link  103 at Thu Feb 15 23:41:34 2024, MaxMem=  2097152000 cpu:               2.0 elap:               0.2
 (Enter /home/pcmt/gaussian/g16.C.01/g16/l202.exe)
                          Input orientation:                          
 ---------------------------------------------------------------------
 Center     Atomic      Atomic             Coordinates (Angstroms)
 Number     Number       Type             X           Y           Z
 ---------------------------------------------------------------------
      1          8           0        0.000000    0.072533   -0.000000
      2          1           0        0.000000    0.963734    0.618938
      3          1           0        0.000000    0.963734   -0.618938
 ---------------------------------------------------------------------
                    Distance matrix (angstroms):
                    1          2          3
     1  O    0.000000
     2  H    1.085045   0.000000
     3  H    1.085045   1.237876   0.000000
 Symmetry turned off by external request.
 Stoichiometry    H2O
 Rotational constants (GHZ):         654.4973366         355.4645134         230.3558073
 Leave Link  202 at Thu Feb 15 23:41:34 2024, MaxMem=  2097152000 cpu:               0.1 elap:               0.1
 (Enter /home/pcmt/gaussian/g16.C.01/g16/l301.exe)
 Basis read from rwf:  (5D, 7F)
 No pseudopotential information found on rwf file.
    43 basis functions,    67 primitive gaussians,    48 cartesian basis functions
     5 alpha electrons        5 beta electrons
       nuclear repulsion energy         8.2306977310 Hartrees.
 IExCor= 1009 DFT=T Ex+Corr=PBE1PBE ExCW=0 ScaHFX=  0.250000
 ScaDFX=  0.750000  0.750000  1.000000  1.000000 ScalE2=  1.000000  1.000000
 IRadAn=      5 IRanWt=     -1 IRanGd=            0 ICorTp=0 IEmpDi=  4
 NAtoms=    3 NActive=    3 NUniq=    3 SFac= 1.00D+00 NAtFMM=   60 NAOKFM=F Big=F
 Integral buffers will be    131072 words long.
 Raffenetti 2 integral format.
 Two-electron integral symmetry is turned off.
 Density basis read from rwf:  (5D, 7F)
    43 Density fitting functions
 ------------------------------------------------------------------------------
 Polarizable Continuum Model (PCM)
 =================================
 Model                : C-PCM.
 Atomic radii         : Bondi.
 Polarization charges : Total charges.
 Charge compensation  : None.
 Solution method      : On-the-fly selection.
 Cavity type          : Scaled VdW (van der Waals Surface) (Alpha=1.100).
 Cavity algorithm     : GePol (No added spheres)
                        Default sphere list used, NSphG=    3.
                        Lebedev-Laikov grids with approx.  5.0 points / Ang**2.
                        Smoothing algorithm: York/Karplus (Gamma=1.0000).
                        Polarization charges: spherical gaussians, with
                                              point-specific exponents (IZeta= 3).
                        Self-potential: point-specific (ISelfS= 7).
                        Self-field    : sphere-specific E.n sum rule (ISelfD= 2).
 1st derivatives      : Analytical E(r).r(x)/FMM algorithm (CHGder, D1EAlg=3).
                        Cavity 1st derivative terms included.
 Solvent              : Water, Eps=  80.100000 Eps(inf)=   1.777849
 ------------------------------------------------------------------------------
 Spheres list:
 ISph  on   Nord     Re0    Alpha      Xe            Ye            Ze
    1   O      1    1.5200  1.100      0.000000      0.072533     -0.000000
    2   H      2    1.2000  1.100      0.000000      0.963734      0.618938
    3   H      3    1.2000  1.100      0.000000      0.963734     -0.618938
 ------------------------------------------------------------------------------
 GePol: Number of generator spheres                  =       3
 GePol: Total number of spheres                      =       3
 GePol: Number of exposed spheres                    =       3 (100.00%)
 GePol: Number of points                             =     265
 GePol: Average weight of points                     =       0.16
 GePol: Minimum weight of points                     =   0.17D-03
 GePol: Maximum weight of points                     =    0.21770
 GePol: Number of points with low weight             =       4
 GePol: Fraction of low-weight points (<1% of avg)   =       1.51%
 GePol: Cavity surface area                          =     43.719 Ang**2
 GePol: Cavity volume                                =     25.784 Ang**3
 Leave Link  301 at Thu Feb 15 23:41:34 2024, MaxMem=  2097152000 cpu:               2.0 elap:               0.2
 (Enter /home/pcmt/gaussian/g16.C.01/g16/l302.exe)
 NPDir=0 NMtPBC=     1 NCelOv=     1 NCel=       1 NClECP=     1 NCelD=      1
         NCelK=      1 NCelE2=     1 NClLst=     1 CellRange=     0.0.
 One-electron integrals computed using PRISM.
 NBasis=    43 RedAO= T EigKep=  1.35D-02  NBF=    43
 NBsUse=    43 1.00D-06 EigRej= -1.00D+00 NBFU=    43
 Precomputing XC quadrature grid using
 IXCGrd= 4 IRadAn=           5 IRanWt=          -1 IRanGd=           0 AccXCQ= 0.00D+00.
 Generated NRdTot=       0 NPtTot=           0 NUsed=           0 NTot=          32
 NSgBfM=    48    48    48    48    48 MxSgAt=     3 MxSgA2=     3.
 Leave Link  302 at Thu Feb 15 23:41:35 2024, MaxMem=  2097152000 cpu:               3.1 elap:               0.3
 (Enter /home/pcmt/gaussian/g16.C.01/g16/l303.exe)
 DipDrv:  MaxL=1.
 Leave Link  303 at Thu Feb 15 23:41:35 2024, MaxMem=  2097152000 cpu:               0.3 elap:               0.1
 (Enter /home/pcmt/gaussian/g16.C.01/g16/l401.exe)
 Initial guess from the checkpoint file:  "h2o.pbe0.optg-freq.chk"
 B after Tr=     0.000000    0.095947   -0.000000
         Rot=    1.000000   -0.000000    0.000000    0.000000 Ang=   0.00 deg.
 Guess basis will be translated and rotated to current coordinates.
 JPrj=2 DoOrth=T DoCkMO=T.
 Leave Link  401 at Thu Feb 15 23:41:35 2024, MaxMem=  2097152000 cpu:               1.3 elap:               0.2
 (Enter /home/pcmt/gaussian/g16.C.01/g16/l502.exe)
 Keep R1 ints in memory in canonical form, NReq=14409293.
 FoFCou: FMM=F IPFlag=           0 FMFlag=           0 FMFlg1=           0
         NFxFlg=           0 DoJE=F BraDBF=F KetDBF=F FulRan=T
         wScrn=  0.000000 ICntrl=       600 IOpCl=  0 I1Cent=           0 NGrid=           0
         NMat0=    1 NMatS0=    946 NMatT0=    0 NMatD0=    1 NMtDS0=    0 NMtDT0=    0
 Symmetry not used in FoFCou.
 Two-electron integral symmetry not used.
 Closed shell SCF:
 Using DIIS extrapolation, IDIIS=  1040.
 NGot=  2097152000 LenX=  2096698137 LenY=  2096695392
 Requested convergence on RMS density matrix=1.00D-08 within 100 cycles.
 Requested convergence on MAX density matrix=1.00D-06.
 Requested convergence on             energy=1.00D-06.
 No special actions if energy rises.

 Cycle   1  Pass 1  IDiag  1:
 Inv3:  Mode=1 IEnd=      210675.
 Iteration    1 A*A^-1 deviation from unit magnitude is 2.44D-15 for    115.
 Iteration    1 A*A^-1 deviation from orthogonality  is 8.71D-16 for    250    138.
 Iteration    1 A^-1*A deviation from unit magnitude is 2.11D-15 for    125.
 Iteration    1 A^-1*A deviation from orthogonality  is 8.37D-16 for    102     41.
 E= -76.3360566777952    
 DIIS: error= 1.25D-02 at cycle   1 NSaved=   1.
 NSaved= 1 IEnMin= 1 EnMin= -76.3360566777952     IErMin= 1 ErrMin= 1.25D-02
 ErrMax= 1.25D-02  0.00D+00 EMaxC= 1.00D-01 BMatC= 6.85D-03 BMatP= 6.85D-03
 IDIUse=3 WtCom= 8.75D-01 WtEn= 1.25D-01
 Coeff-Com:  0.100D+01
 Coeff-En:   0.100D+01
 Coeff:      0.100D+01
 Gap=     0.700 Goal=   None    Shift=    0.000
 GapD=    0.700 DampG=2.000 DampE=0.500 DampFc=1.0000 IDamp=-1.
 RMSDP=1.88D-03 MaxDP=1.66D-02              OVMax= 5.21D-02

 Cycle   2  Pass 1  IDiag  1:
 E= -76.3442720853197     Delta-E=       -0.008215407524 Rises=F Damp=F
[...]
 ! R1    R(1,2)                  0.7359                 49.9                    !
 ! R2    R(1,3)                  0.7359                 49.9                    !
 --------------------------------------------------------------------------------
                           ----------------------------
                           ! Normal Mode     3        !
 --------------------------                            --------------------------
 ! Name  Definition              Value          Relative Weight (%)             !
 --------------------------------------------------------------------------------
 ! R1    R(1,2)                  0.7608                 50.0                    !
 ! R2    R(1,3)                 -0.7608                 50.0                    !
 --------------------------------------------------------------------------------
 Max01P=      3 Av01P=    2.33 Stan. Dev.=    0.58
 Max05P=      2 Av05P=    1.67 Stan. Dev.=    0.58
 Max10P=      2 Av10P=    1.67 Stan. Dev.=    0.58
 MaxNDP=      2 AvNDP=    1.67 Stan. Dev.=    0.58
 
                                                        h2o.pbe0.optg-freq.chk
                                                             IR Spectrum
 
     3  3                                                                       1                                                    
     9  8                                                                       6                                                    
     1  3                                                                       0                                                    
     7  0                                                                       8                                                    
 
     X  X                                                                       X                                                    
     X  X                                                                       X                                                    
     X  X                                                                       X                                                    
     X  X                                                                       X                                                    
     X  X                                                                       X                                                    
     X                                                                          X                                                    
     X                                                                          X                                                    
     X                                                                          X                                                    
     X                                                                          X                                                    
     X                                                                          X                                                    
     X                                                                          X                                                    
     X                                                                          X                                                    
     X                                                                          X                                                    
     X                                                                          X                                                    
     X                                                                          X                                                    
     X                                                                          X                                                    
     X                                                                          X                                                    
     X                                                                          X                                                    
     X                                                                          X                                                    
                                                                                X                                                    
 
 
                                                        h2o.pbe0.optg-freq.chk
                                                            Raman Spectrum
 
     3  3                                                                       1                                                    
     9  8                                                                       6                                                    
     1  3                                                                       0                                                    
     7  0                                                                       8                                                    
 
     X  X                                                                       X                                                    
     X  X                                                                                                                            
     X  X                                                                                                                            
     X  X                                                                                                                            
     X  X                                                                                                                            
     X  X                                                                                                                            
     X  X                                                                                                                            
     X  X                                                                                                                            
     X  X                                                                                                                            
        X                                                                                                                            
        X                                                                                                                            
        X                                                                                                                            
        X                                                                                                                            
        X                                                                                                                            
        X                                                                                                                            
        X                                                                                                                            
        X                                                                                                                            
        X                                                                                                                            
        X                                                                                                                            
        X                                                                                                                            
 
 -------------------------------------------------------------------
 Center     Atomic                   Forces (Hartrees/Bohr)
 Number     Number              X              Y              Z
 -------------------------------------------------------------------
      1        8          -0.000000000   -0.000171866    0.000000000
      2        1           0.000000000    0.000085933   -0.000128313
      3        1           0.000000000    0.000085933    0.000128313
 -------------------------------------------------------------------
 Cartesian Forces:  Max     0.000171866 RMS     0.000092637
 Force constants in Cartesian coordinates: 
                1             2             3             4             5 
      1  0.366202D-03
      2  0.000000D+00  0.458694D+00
      3  0.000000D+00  0.000000D+00  0.676434D+00
      4 -0.183101D-03  0.000000D+00  0.000000D+00  0.444813D-04
      5  0.000000D+00 -0.229347D+00 -0.262912D+00  0.000000D+00  0.216760D+00
      6  0.000000D+00 -0.206635D+00 -0.338217D+00  0.000000D+00  0.234773D+00
      7 -0.183101D-03  0.000000D+00  0.000000D+00  0.138620D-03  0.000000D+00
      8  0.000000D+00 -0.229347D+00  0.262912D+00  0.000000D+00  0.125866D-01
      9  0.000000D+00  0.206635D+00 -0.338217D+00  0.000000D+00  0.281386D-01
                6             7             8             9 
      6  0.369028D+00
      7  0.000000D+00  0.444813D-04
      8 -0.281386D-01  0.000000D+00  0.216760D+00
      9 -0.308114D-01  0.000000D+00 -0.234773D+00  0.369028D+00
 FormGI is forming the generalized inverse of G from B-inverse, IUseBI=4.
 Force constants in internal coordinates: 
                1             2             3 
      1  0.539095D+00
      2 -0.317418D-02  0.539095D+00
      3  0.285185D-01  0.285185D-01  0.154115D+00
 Leave Link  716 at Thu Feb 15 23:42:11 2024, MaxMem=  2097152000 cpu:               0.6 elap:               0.1
 (Enter /home/pcmt/gaussian/g16.C.01/g16/l103.exe)

 GradGradGradGradGradGradGradGradGradGradGradGradGradGradGradGradGradGrad
 Berny optimization.
 Red2BG is reusing G-inverse.
 Internal  Forces:  Max     0.000266467 RMS     0.000158897
 Search for a local minimum.
 Step number   1 out of a maximum of    2
 All quantities printed in internal units (Hartrees-Bohrs-Radians)
 Second derivative matrix not updated -- analytic derivatives used.
 The second derivative matrix:
                          R1        R2        A1
           R1           0.53909
           R2          -0.00317   0.53909
           A1           0.02852   0.02852   0.15412
 ITU=  0
     Eigenvalues ---    0.14990   0.54013   0.54227
 Angle between quadratic step and forces=  14.54 degrees.
 Linear search not attempted -- first point.
 Iteration  1 RMS(Cart)=  0.00098055 RMS(Int)=  0.00000056
 Iteration  2 RMS(Cart)=  0.00000048 RMS(Int)=  0.00000000
 ITry= 1 IFail=0 DXMaxC= 9.64D-04 DCOld= 1.00D+10 DXMaxT= 3.00D-01 DXLimC= 3.00D+00 Rises=F
 Variable       Old X    -DE/DX   Delta X   Delta X   Delta X     New X
                                 (Linear)    (Quad)   (Total)
    R1        1.81819  -0.00005   0.00000   0.00000   0.00000   1.81819
    R2        1.81819  -0.00005   0.00000   0.00000   0.00000   1.81819
    A1        1.82163  -0.00027   0.00000  -0.00173  -0.00173   1.81990
         Item               Value     Threshold  Converged?
 Maximum Force            0.000266     0.000450     YES
 RMS     Force            0.000159     0.000300     YES
 Maximum Displacement     0.000964     0.001800     YES
 RMS     Displacement     0.000981     0.001200     YES
 Predicted change in Energy=-2.303628D-07
 Optimization completed.
    -- Stationary point found.
                           ----------------------------
                           !   Optimized Parameters   !
                           ! (Angstroms and Degrees)  !
 --------------------------                            --------------------------
 ! Name  Definition              Value          Derivative Info.                !
 --------------------------------------------------------------------------------
 ! R1    R(1,2)                  0.9621         -DE/DX =    0.0                 !
 ! R2    R(1,3)                  0.9621         -DE/DX =    0.0                 !
 ! A1    A(2,1,3)              104.3717         -DE/DX =   -0.0003              !
 --------------------------------------------------------------------------------
 GradGradGradGradGradGradGradGradGradGradGradGradGradGradGradGradGradGrad

 Leave Link  103 at Thu Feb 15 23:42:11 2024, MaxMem=  2097152000 cpu:               0.1 elap:               0.1
 (Enter /home/pcmt/gaussian/g16.C.01/g16/l9999.exe)

 ----------------------------------------------------------------------

 Electric dipole moment (input orientation):
 (Debye = 10**-18 statcoulomb cm , SI units = C m)
                  (au)            (Debye)         (10**-30 SI)
   Tot        0.961284D+00      0.244334D+01      0.815011D+01
   x          0.000000D+00      0.000000D+00      0.000000D+00
   y          0.961284D+00      0.244334D+01      0.815011D+01
   z          0.000000D+00      0.000000D+00      0.000000D+00

 Dipole polarizability, Alpha (input orientation).
 (esu units = cm**3 , SI units = C**2 m**2 J**-1)
 Alpha(0;0):
               (au)            (10**-24 esu)      (10**-40 SI)
   iso        0.744037D+01      0.110255D+01      0.122675D+01
   aniso      0.243846D+01      0.361343D+00      0.402048D+00
   xx         0.607166D+01      0.899727D+00      0.100108D+01
   yx         0.000000D+00      0.000000D+00      0.000000D+00
   yy         0.736513D+01      0.109140D+01      0.121435D+01
   zx         0.000000D+00      0.000000D+00      0.000000D+00
   zy         0.000000D+00      0.000000D+00      0.000000D+00
   zz         0.888433D+01      0.131652D+01      0.146483D+01

 First dipole hyperpolarizability, Beta (input orientation).
 ||, _|_  parallel and perpendicular components, (z) with respect to z axis,
 vector components x,y,z.  Values do not include the 1/n! factor of 1/2.
 (esu units = statvolt**-1 cm**4 , SI units = C**3 m**3 J**-2)
 Beta(0;0,0):
               (au)            (10**-30 esu)      (10**-50 SI)
   || (z)     0.000000D+00      0.000000D+00      0.000000D+00
   _|_(z)     0.000000D+00      0.000000D+00      0.000000D+00
   x          0.000000D+00      0.000000D+00      0.000000D+00
   y          0.115201D+03      0.995249D+00      0.369377D+00
   z          0.000000D+00      0.000000D+00      0.000000D+00
   ||         0.230402D+02      0.199050D+00      0.738753D-01
   xxx        0.000000D+00      0.000000D+00      0.000000D+00
   xxy        0.333672D+01      0.288266D-01      0.106987D-01
   yxy        0.000000D+00      0.000000D+00      0.000000D+00
   yyy        0.131585D+02      0.113679D+00      0.421910D-01
   xxz        0.000000D+00      0.000000D+00      0.000000D+00
   yxz        0.000000D+00      0.000000D+00      0.000000D+00
   yyz        0.000000D+00      0.000000D+00      0.000000D+00
   zxz        0.000000D+00      0.000000D+00      0.000000D+00
   zyz        0.219052D+02      0.189243D+00      0.702358D-01
   zzz        0.000000D+00      0.000000D+00      0.000000D+00

 ----------------------------------------------------------------------

 Dipole orientation:
     8         -0.00000000          0.00000000          0.51665999
     1         -0.00000000         -1.43637676          1.63139613
     1         -0.00000000          1.43637676          1.63139613

 Electric dipole moment (dipole orientation):
 (Debye = 10**-18 statcoulomb cm , SI units = C m)
                  (au)            (Debye)         (10**-30 SI)
   Tot        0.961284D+00      0.244334D+01      0.815011D+01
   x          0.000000D+00      0.000000D+00      0.000000D+00
   y          0.000000D+00      0.000000D+00      0.000000D+00
   z          0.961284D+00      0.244334D+01      0.815011D+01

 Dipole polarizability, Alpha (dipole orientation).
 (esu units = cm**3 , SI units = C**2 m**2 J**-1)
 Alpha(0;0):
               (au)            (10**-24 esu)      (10**-40 SI)
   iso        0.744037D+01      0.110255D+01      0.122675D+01
   aniso      0.243846D+01      0.361343D+00      0.402048D+00
   xx         0.607166D+01      0.899727D+00      0.100108D+01
   yx         0.000000D+00      0.000000D+00      0.000000D+00
   yy         0.888433D+01      0.131652D+01      0.146483D+01
   zx         0.000000D+00      0.000000D+00      0.000000D+00
   zy         0.000000D+00      0.000000D+00      0.000000D+00
   zz         0.736513D+01      0.109140D+01      0.121435D+01

 First dipole hyperpolarizability, Beta (dipole orientation).
 ||, _|_  parallel and perpendicular components, (z) with respect to z axis,
 vector components x,y,z.  Values do not include the 1/n! factor of 1/2.
 (esu units = statvolt**-1 cm**4 , SI units = C**3 m**3 J**-2)
 Beta(0;0,0):
               (au)            (10**-30 esu)      (10**-50 SI)
   || (z)     0.230402D+02      0.199050D+00      0.738753D-01
   _|_(z)     0.768008D+01      0.663499D-01      0.246251D-01
   x          0.000000D+00      0.000000D+00      0.000000D+00
   y          0.000000D+00      0.000000D+00      0.000000D+00
   z          0.115201D+03      0.995249D+00      0.369377D+00
   ||         0.230402D+02      0.199050D+00      0.738753D-01
   xxx        0.000000D+00      0.000000D+00      0.000000D+00
   xxy        0.000000D+00      0.000000D+00      0.000000D+00
   yxy        0.000000D+00      0.000000D+00      0.000000D+00
   yyy        0.000000D+00      0.000000D+00      0.000000D+00
   xxz        0.333672D+01      0.288266D-01      0.106987D-01
   yxz        0.000000D+00      0.000000D+00      0.000000D+00
   yyz        0.219052D+02      0.189243D+00      0.702358D-01
   zxz        0.000000D+00      0.000000D+00      0.000000D+00
   zyz        0.000000D+00      0.000000D+00      0.000000D+00
   zzz        0.131585D+02      0.113679D+00      0.421910D-01

 ----------------------------------------------------------------------

 Test job not archived.
 1\1\GINC-U-0-1\Freq\RPBE1PBE\Gen/Gen\H2O1\ROOT\15-Feb-2024\0\\#P Geom=
 AllCheck Guess=TCheck SCRF=Check Test GenChk RPBE1PBE/Gen/Gen Freq\\h2
 o.pbe0.optg-freq.chk\\0,1\O,0.,0.2734046921,0.\H,0.,0.863297654,0.7600
 978478\H,0.,0.863297654,-0.7600978478\\Version=ES64L-G16RevC.01\HF=-76
 .3892901\RMSD=0.000e+00\RMSF=9.264e-05\ZeroPoint=0.0213122\Thermal=0.0
 241479\ETot=-76.3651422\HTot=-76.364198\GTot=-76.3862778\Dipole=0.,0.9
 61284,0.\DipoleDeriv=-0.8609476,0.,0.,0.,-0.5380945,0.,0.,0.,-0.682267
 ,0.4304738,0.,0.,0.,0.2690472,-0.0723988,0.,-0.0460456,0.3411335,0.430
 4738,0.,0.,0.,0.2690472,0.0723988,0.,0.0460456,0.3411335\Polar=6.07165
 89,0.,7.3651291,0.,0.,8.8843344\PolarDeriv=0.,-1.1601882,0.,0.,0.,0.,-
 0.5385045,0.,-6.7264086,0.,0.,-5.4143821,0.,0.,0.,0.,-5.3628884,0.,0.,
 0.5800941,0.,0.9735588,0.,0.,0.2692522,0.,3.3632043,0.,2.5999997,2.707
 191,0.0038805,0.,1.9019441,0.,2.6814442,5.5154711,0.,0.5800941,0.,-0.9
 735588,0.,0.,0.2692522,0.,3.3632043,0.,-2.5999997,2.707191,-0.0038805,
 0.,-1.9019441,0.,2.6814442,-5.5154711\HyperPolar=0.,3.3367183,0.,13.15
 85328,0.,0.,0.,0.,21.9051548,0.\Quadrupole=-1.6674026,0.77516,0.892242
 6,0.,0.,0.\PG=Unknown\NImag=0\\0.00036620,0.,0.45869353,0.,0.,0.676433
 79,-0.00018310,0.,0.,0.00004448,0.,-0.22934677,-0.26291209,0.,0.216760
 17,0.,-0.20663488,-0.33821689,0.,0.23477349,0.36902827,-0.00018310,0.,
 0.,0.00013862,0.,0.,0.00004448,0.,-0.22934677,0.26291209,0.,0.01258659
 ,-0.02813860,0.,0.21676017,0.,0.20663488,-0.33821689,0.,0.02813860,-0.
 03081138,0.,-0.23477349,0.36902827\\0.,0.00017187,0.,0.,-0.00008593,0.
 00012831,0.,-0.00008593,-0.00012831\\\@


 When I told the people of Northern Ireland that I was
 an atheist, a woman in the audience stood up and said,
 "Yes, but is it the God of the Catholics or the God
 of the Protestants in whom you don't believe?"
                               -- Quentin Crisp
 Job cpu time:       0 days  0 hours  2 minutes 31.4 seconds.
 Elapsed time:       0 days  0 hours  0 minutes 12.3 seconds.
 File lengths (MBytes):  RWF=      6 Int=      0 D2E=      0 Chk=      2 Scr=      1
 Normal termination of Gaussian 16 at Thu Feb 15 23:42:11 2024.
