

 Parallel Execution: Process Information
 ==============================================================================
 Rank   Node Name                              NodeID   MyNodeRank  NodeMaster
    0   u-5-4.local                               0          0          0
    1   u-5-4.local                               0          1         -1
    2   u-5-4.local                               0          2         -1
    3   u-5-4.local                               0          3         -1
    4   u-5-4.local                               1          0          1
    5   u-5-4.local                               1          1         -1
    6   u-5-4.local                               1          2         -1
    7   u-5-4.local                               1          3         -1
 ==============================================================================


May use up to 31144MB of RAM as shared memory on node 0
May use up to 31250MB of RAM as shared memory on node 1

 *******************************************************************************
 *                                                                             *
 *  --------------------------------                                           *
 *   Amsterdam Modeling Suite (AMS)              2023.101                      *
 *  --------------------------------                                           *
 *                                               r111868 2023-03-31            *
 *                                                                             *
 *                                                                             *
 *                              =================                              *
 *                              |               |                              *
 *                              |     A M S     |                              *
 *                              |               |                              *
 *                              =================                              *
 *                                                                             *
 *                                                                             *
 *   Online information and documentation:  https://www.scm.com/support/       *
 *   E-mail:  support@scm.com   info@scm.com                                   *
 *                                                                             *
 *   Scientific publications using AMS results must be properly referenced     *
 *   See the User Manuals (or the web site) for recommended citations          *
 *   The terms and conditions of the End User License Agreement apply to       *
 *   the use of AMS, https://www.scm.com/license-terms/                        *
 *                                                                             *
 **********************  x86_64_linux_intel / intelmpi  ************************
 
 Licensed to: Dr. Val?rie Vallet / Laboratoire PhLAM UMR 8523 / Villeneuve d'Ascq Cedex / FRANCE 2024-02-19 16:59:55
 SCM User ID: u10325
  
 AMS 2023.101  RunTime: Mar04-2024 20:41:24  ShM Nodes: 2  Procs: 8

 AMS jobname: h2o.x2c-so.pbe0
 AMS jobid  : 610982234

 Start   directory: /home/vallet/ANL/CeIV-dimer/h2o/geom-pbe0-cosmo/ams-sp-pbe0-x2c/
 Results directory: /home/vallet/ANL/CeIV-dimer/h2o/geom-pbe0-cosmo/ams-sp-pbe0-x2c/h2o.x2c-so.pbe0.results/
 Scratch directory: /state/partition1/vallet/1008780.phlam-s-sakura/amstmp_h2o.x2c-so.pbe0_kid0.610982234/


 Communication costs MPI_COMM_WORLD:      1.669 usec per message,   0.0057 usec per 8-byte item
 Communication costs for intra-node:      0.855 usec per message,   0.0035 usec per 8-byte item

 RNG seed: 72230297 478889771 1408217390 -1033631190 -412731305 1571583783 1591023899 -580316963



                      ************************************************************************
                      *  ADF 2023.101  RunTime: Mar04-2024 20:41:25  ShM Nodes: 2  Procs: 8  *
                      ************************************************************************
  

       ****************************
       * SINGLE POINT CALCULATION *
       ****************************
 
--------
Geometry
--------
Formula: H2O
Atoms
  Index Symbol   x (angstrom)   y (angstrom)   z (angstrom)
      1      O     0.00000000     0.27340500     0.00000000
      2      H     0.00000000     0.86329800     0.76009800
      3      H     0.00000000     0.86329800    -0.76009800
 
Total System Charge             0.00000
Bonding info available!
 
 
----------------
ADF Engine Input
----------------
 
 Basis
 Type TZ2P
 Core None
 End
 XC
 Hybrid PBE0
 End
 Relativity
 Level Spin-Orbit
 Formalism X2C
 SpinOrbitMagnetization NonCollinear
 End
 

 Title: *** (NO TITLE) ***

 *** adf ***



 ===========================
 A T T A C H E D   F I L E S
 ===========================
  



 ===============================
 M O D E L   P A R A M E T E R S
 ===============================
  
 DENSITY FUNCTIONAL POTENTIAL (scf)
    Hybrid:                            PBE0                                    == Not Default ==

 SPIN  (restricted / unrestr.)
    Molecule:                          Restricted                               
    Fragments:                         Restricted                               

 OTHER ASPECTS
    Relativistic Corrections:          Spin-Orbit (X2C,MAPA)                   == Not Default ==

    Nuclear Charge Density Model:      Point Charge Nuclei                      
    Core Treatment:                    Frozen Orbital(s)                        

    Hyperfine or Zeeman Interaction:   ---                                      
 WARNING: Atom coordinates do not satisfy full symmetry (probably due to orienta
 tion).


 Fragment File(s)
 ----------------
 O:
         file : /home/vallet/ANL/CeIV-dimer/h2o/geom-pbe0-cosmo/ams-sp-pbe0-x2c/h2o.x2c-so.pbe0.results/t21.5810AA2E.O
         jobid: 0
         title: Oxygen (TZ2P)
 H:
         file : /home/vallet/ANL/CeIV-dimer/h2o/geom-pbe0-cosmo/ams-sp-pbe0-x2c/h2o.x2c-so.pbe0.results/t21.62BC803D.H
         jobid: 0
         title: Hydrogen (TZ2P)



 ===============
 G E O M E T R Y  ***  Planar Molecule  ***
 ===============
  

 ATOMS
 =====                            X Y Z                    CHARGE
                                (Angstrom)             Nucl     +Core       At.Mass
                       --------------------------    ----------------       -------
    1  O               0.0000    0.2734    0.0000      8.00      8.00       15.9949
    2  H               0.0000    0.8633    0.7601      1.00      1.00        1.0078
    3  H               0.0000    0.8633   -0.7601      1.00      1.00        1.0078


 FRAGMENTS
 =========                                     Atoms in this Fragment     Cart. coord.s (Angstrom)
                                               -------------------------------------------------------
    1  O                                                 1  O            0.0000    0.2734    0.0000
    2  H                                                 2  H            0.0000    0.8633    0.7601
    3  H                                                 3  H            0.0000    0.8633   -0.7601


 Interatomic Distance Matrix (Angstrom)
 --------------------------------------

   1)     0.000
   2)     0.962   0.000
   3)     0.962   1.520   0.000

 Min. Distance =    0.9621
 Max. Distance =    1.5202



 =====================================
 S Y M M E T R Y ,   E L E C T R O N S
 =====================================
  
 Symmetry: NOSYM

 Double Group Irreducible Representations (spinor symmetry)
 -----------------------------------------------------------
 A1/2

 Symmetry is NOT used when fitting density


 Configuration of Valence Electrons
 ==================================
 ( determined in the SCF procedure )

 Total:   10

 Net Charge: 0 (Nuclei minus Electrons)

 Aufbau principle for MO occupations will be applied through SCF cycle no.     150
 Thereafter, the program will assign electrons to MOs that are spatially
 similar to the occupied MOs in a "reference" cycle ("KeepOrbitals").
 The reference cycle is always the PREVIOUS cycle: it will evolve with
 the SCF procedure.
1
 ***************************************************************************************************



                                      ****************************************
                                      *  B U I L D : (Fragments, Functions)  *
                                      ****************************************
  



 =======
 S F O s  ***  (Symmetrized Fragment Orbitals)  ***
 =======
  
 SFOs are linear combinations of (valence) Fragment Orbitals (FOs), such that the SFOs transform as the
 irreducible representations of the (molecular) symmetry group. Each SFO is therefore characterized by
 an irrep of the molecule and by a few (or only one) generating FOs.
 The SFOs constitute a symmetry-adapted basis for the Fock matrix. The MO eigenvector coefficients in
 this basis provide a direct interpretation of the MOs in terms of Frontier Orbital Theory.

 The SFOs are combined with auxiliary Core Functions (CFs) to ensure orthogonalization on the (frozen)
 Core Orbitals (COs). The Core-orthogonalized SFOs (CSFOs) constitute the true Fock basis.

 The FOs, and hence also the (C)SFOs are combinations of the elementary basis functions (BAS). The basis
 functions that participate in the description of the SFOs depend on the irrep. The indices of the
 involved functions are printed below for each irrep.
 (The complete list of primitive basis functions is printed in another section)

 Total nr. of (C)SFOs (summation over all irreps) :    48

 NOTE: a (C)SFO that is defined as a combination of more than one FO is usually NOT normalized.

 NOTE: the (C)SFOs are single group symmetry adapted orbitals.



                                       === A ===
 Nr. of SFOs :   48
 Cartesian basis functions that participate in this irrep (total number =    54) :
      1     2     3     4     5     6     9    12     7    10
     13     8    11    14    15    16    17    18    19    20
     21    22    23    24    25    26    27    28    29    30
     31    32    33    34    35    36    37    38    39    40
     41    42    43    44    45    46    47    48    49    50
     51    52    53    54

    SFO  (index         Fragment          Generating    Expansion in Fragment Orbitals
  indx  incl.CFs)   Occup   Orb.Energy   FragmentType  Coeff.   Orbital     on Fragment
 --------------------------------------------------------------------------------------
     1       1      2.000     -19.396 au  O             1.00      1 S               1
                        (    -527.798 eV)
     2       2      2.000      -0.999 au  O             1.00      2 S               1
                        (     -27.197 eV)
     3       3       --         0.856 au  O             1.00      3 S               1
                        (      23.286 eV)
     4       4       --        13.669 au  O             1.00      4 S               1
                        (     371.959 eV)
     5       5       --       122.371 au  O             1.00      5 S               1
                        (    3329.873 eV)
     6       6      1.333      -0.366 au  O             1.00      1 P:x             1
                        (      -9.955 eV)
     7       7       --         0.397 au  O             1.00      2 P:x             1
                        (      10.811 eV)
     8       8       --         3.979 au  O             1.00      3 P:x             1
                        (     108.279 eV)
     9       9      1.333      -0.366 au  O             1.00      1 P:y             1
                        (      -9.955 eV)
    10      10       --         0.397 au  O             1.00      2 P:y             1
                        (      10.811 eV)
    11      11       --         3.979 au  O             1.00      3 P:y             1
                        (     108.279 eV)
    12      12      1.333      -0.366 au  O             1.00      1 P:z             1
                        (      -9.955 eV)
    13      13       --         0.397 au  O             1.00      2 P:z             1
                        (      10.811 eV)
    14      14       --         3.979 au  O             1.00      3 P:z             1
                        (     108.279 eV)
    15      15       --         1.128 au  O             1.00      1 D:z2            1
                        (      30.706 eV)
    16      16       --         1.128 au  O             1.00      1 D:x2-y2         1
                        (      30.706 eV)
    17      17       --         1.128 au  O             1.00      1 D:xy            1
                        (      30.706 eV)
    18      18       --         1.128 au  O             1.00      1 D:xz            1
                        (      30.706 eV)
    19      19       --         1.128 au  O             1.00      1 D:yz            1
                        (      30.706 eV)
    20      20       --         3.446 au  O             1.00      1 F:z3            1
                        (      93.772 eV)
    21      21       --         3.446 au  O             1.00      1 F:z             1
                        (      93.772 eV)
    22      22       --         3.446 au  O             1.00      1 F:xyz           1
                        (      93.772 eV)
    23      23       --         3.446 au  O             1.00      1 F:z2x           1
                        (      93.772 eV)
    24      24       --         3.446 au  O             1.00      1 F:z2y           1
                        (      93.772 eV)
    25      25       --         3.446 au  O             1.00      1 F:x             1
                        (      93.772 eV)
    26      26       --         3.446 au  O             1.00      1 F:y             1
                        (      93.772 eV)
    27      27      1.000      -0.242 au  H             1.00      1 S               2
                        (      -6.582 eV)
    28      28       --         0.113 au  H             1.00      2 S               2
                        (       3.073 eV)
    29      29       --         1.599 au  H             1.00      3 S               2
                        (      43.500 eV)
    30      30       --         0.445 au  H             1.00      1 P:x             2
                        (      12.103 eV)
    31      31       --         0.445 au  H             1.00      1 P:y             2
                        (      12.103 eV)
    32      32       --         0.445 au  H             1.00      1 P:z             2
                        (      12.103 eV)
    33      33       --         2.628 au  H             1.00      1 D:z2            2
                        (      71.505 eV)
    34      34       --         2.628 au  H             1.00      1 D:x2-y2         2
                        (      71.505 eV)
    35      35       --         2.628 au  H             1.00      1 D:xy            2
                        (      71.505 eV)
    36      36       --         2.628 au  H             1.00      1 D:xz            2
                        (      71.505 eV)
    37      37       --         2.628 au  H             1.00      1 D:yz            2
                        (      71.505 eV)
    38      38      1.000      -0.242 au  H             1.00      1 S               3
                        (      -6.582 eV)
    39      39       --         0.113 au  H             1.00      2 S               3
                        (       3.073 eV)
    40      40       --         1.599 au  H             1.00      3 S               3
                        (      43.500 eV)
    41      41       --         0.445 au  H             1.00      1 P:x             3
                        (      12.103 eV)
    42      42       --         0.445 au  H             1.00      1 P:y             3
                        (      12.103 eV)
    43      43       --         0.445 au  H             1.00      1 P:z             3
                        (      12.103 eV)
    44      44       --         2.628 au  H             1.00      1 D:z2            3
                        (      71.505 eV)
    45      45       --         2.628 au  H             1.00      1 D:x2-y2         3
                        (      71.505 eV)
    46      46       --         2.628 au  H             1.00      1 D:xy            3
                        (      71.505 eV)
    47      47       --         2.628 au  H             1.00      1 D:xz            3
                        (      71.505 eV)
    48      48       --         2.628 au  H             1.00      1 D:yz            3
                        (      71.505 eV)



 ================================
 (Slater-type)  F U N C T I O N S  ***  (Basis and Fit)  ***
 ================================
  

 Atom Type    1  (O)
 ==============

 Valence Basis Sets:  10
 -----------------------
   1 S    9.800000
   1 S    6.800000
   2 S    7.580000
   2 S    2.880000
   2 S    1.720000
   2 P    4.080000
   2 P    2.080000
   2 P    1.120000
   3 D    2.000000
   4 F    3.000000

 Charge Fitting Sets (for the computation of the Coulomb Potential):  22
 -----------------------------------------------------------------------
   1 S   19.600000
   2 S   22.600000
   2 S   15.680000
   2 S   10.890000
   2 S    7.560000
   3 S    7.690000
   3 S    5.650000
   3 S    4.150000
   3 S    3.050000
   3 S    2.240000
   2 P   12.860000
   2 P    7.680000
   3 P    6.780000
   3 P    4.390000
   3 P    2.840000
   3 D    8.800000
   3 D    5.580000
   3 D    3.530000
   3 D    2.240000
   4 F    6.200000
   4 F    3.700000
   5 G    4.500000

 Atom Type    2  (H)
 ==============

 Valence Basis Sets:   5
 -----------------------
   1 S    0.690000
   1 S    0.920000
   1 S    1.580000
   2 P    1.250000
   3 D    2.500000

 Charge Fitting Sets (for the computation of the Coulomb Potential):  11
 -----------------------------------------------------------------------
   1 S    3.160000
   1 S    2.090000
   1 S    1.380000
   2 S    1.500000
   2 P    4.000000
   2 P    2.650000
   2 P    1.750000
   3 D    4.000000
   3 D    2.500000
   4 F    3.000000
   5 G    4.000000


 BAS: List of all Elementary Cartesian Basis Functions
 =====================================================

 The numbering in the list below (to the right of the function characteristics) is referred
 to in print-outs of MO eigenvectors and Mulliken populations in the BAS representation
 (as contrasted to the SFO representation).

 Notes:
 1. The functions are characterized by a polynomial prefactor (powers of x,y,z and r) and
    an exponential decay factor alpha.
 2. Since the basis sets are specific for an atom TYPE, the individual functions occur on
    all atoms of that type.
 3. The word 'Core' in the left margin signals that it is a Core Function (CF) : not a
    degree of freedom in the valence set, but only used to ensure orthogonalization of
    the other valence basis functions on the frozen Core Orbitals.


 (power of) X  Y  Z  R     Alpha  on Atom
            ==========     =====     ==========

 O                                    1
                                  ---------------------------------------------------------------------------
            0  0  0  0     9.800      1
            0  0  0  0     6.800      2
            0  0  0  1     7.580      3
            0  0  0  1     2.880      4
            0  0  0  1     1.720      5
            1  0  0  0     4.080      6
            0  1  0  0     4.080      7
            0  0  1  0     4.080      8
            1  0  0  0     2.080      9
            0  1  0  0     2.080     10
            0  0  1  0     2.080     11
            1  0  0  0     1.120     12
            0  1  0  0     1.120     13
            0  0  1  0     1.120     14
            2  0  0  0     2.000     15
            1  1  0  0     2.000     16
            1  0  1  0     2.000     17
            0  2  0  0     2.000     18
            0  1  1  0     2.000     19
            0  0  2  0     2.000     20
            3  0  0  0     3.000     21
            2  1  0  0     3.000     22
            2  0  1  0     3.000     23
            1  2  0  0     3.000     24
            1  1  1  0     3.000     25
            1  0  2  0     3.000     26
            0  3  0  0     3.000     27
            0  2  1  0     3.000     28
            0  1  2  0     3.000     29
            0  0  3  0     3.000     30

 H                                    2    3
                                  ---------------------------------------------------------------------------
            0  0  0  0     0.690     31   43
            0  0  0  0     0.920     32   44
            0  0  0  0     1.580     33   45
            1  0  0  0     1.250     34   46
            0  1  0  0     1.250     35   47
            0  0  1  0     1.250     36   48
            2  0  0  0     2.500     37   49
            1  1  0  0     2.500     38   50
            1  0  1  0     2.500     39   51
            0  2  0  0     2.500     40   52
            0  1  1  0     2.500     41   53
            0  0  2  0     2.500     42   54

 Total number of charge fitting functions (nprimf)       184
 Total number of Cartesian basis functions (naos)         54
 Total number of Cartesian core functions  (ncos)          0

1
 ***************************************************************************************************



                                              ***********************
                                              *  T E C H N I C A L  *
                                              ***********************
  



 =============================================================
 P A R A L L E L I Z A T I O N  and  V E C T O R I Z A T I O N
 =============================================================
  
 Nr of parallel processes:                                8
 Maximum vector length in NumInt loops:                 128



 =====================
 S C F   U P D A T E S
 =====================
  
 Max. nr. of cycles:                               300
 Convergence criterion:                              0.0000010000
   secondary criterion:                              0.0010000000

 Mix parameter (when DIIS does not apply):           0.2000000000
 Mixed ADIIS+SDIIS will be used                  
    Max number of expansion vectors:                10
    Pure ADIIS when Max([F,P]) is above              0.1000000000
    Pure SDIIS when Max([F,P]) is below              0.0010000000
 Automatic ElectronSmearing (in case of problematic SCF convergence) disabled



 =================
 P R E C I S I O N  ***  (General: NumInt, NeglectFunctionTails, ...)  ***
 =================
  

 NumInt:           Target precision:                 4.0000000000
 -------           Initial precision:                4.0000000000
                   Min. precision (optimization):    4.0000000000

 Neglect Functions:          Basis functions:        0.1000000000E-05
 ------------------          Fit functions:          0.1000000000E-05



 ===========================
 L I N E A R   S C A L I N G
 ===========================
  

 Cut-off radii density fit:                        0.1000000000E-07
 Overlap cut-off criterion AO matrix elements:     0.1000000000E-05
 Cut-offs for Coulomb potential and fitted density:0.1000000000E-07
 Cut-off criterion for Coulomb multipole terms:    0.1000000000E-07
 Progressive Convergence parameter:                 0.000000000    
1
 ***************************************************************************************************



                                            ***************************
                                            *  C O M P U T A T I O N  *
                                            ***************************
  



 ==============================
 Double group spinor symmetries  ***  (Spin-Orbit)  ***
 ==============================
  

 The double group Lowdins are spinors adapted to the irreducible representations
 of the double group. These double group Lowdins are linear combinations of
 products of the single group Lowdins and the spinfunctions. The single group
 Lowdins are  orthonormalized symmetrized fragment orbitals (SFOs).
 The complex coefficients that are used in the linear combinations are also
 known as Clebsch-Gordan coefficients.
 The spin functions (alpha,beta) span irrep e1/2


          A * e 1/2 :      A1/2

  A1/2:1 = A.alpha
  A1/2:1 = A.beta

 The table summarizes which one-electron orbital irreps (single group) couple
 with spin to which spinor irreps (double group).
 The Clebsch-Gordan series for each direct product: orbital irrep times e1/2.
                  A
            -------
  A1/2           X


 dimension (equal to the max. nr. of electrons per spinor) of the double group irreps
 ------------------------------------------------------------------------------------
  A1/2           1

 Number of elements of the density matrix on this node (used, total):       465      1485



 ===========================================
 Numerical Integration : Fuzzy Cells (Becke)
 ===========================================
  
 Becke grid quality: NORMAL         
  
 Lebedev angular grid order:             min:  11 max:  23
 Nr. of radial points:                   min:  46 max:  49

 Total nr. of points:      18530
 Nr. of blocks:              145
 Block length:               128
 Nr. of dummy points:         30


 Test of Precision of the Numerical Integration Grid
 ===================================================

 Integral of the Total Core Density:                   0.00000000000000



 ========================
 Density Fitting (zlmFit)
 ========================
  
 ZlmFit Fit Quality: NORMAL         
  
 Max L-expansion:                        min:   6 max:   7
 Nr. of radial interpolation points:     min:  39 max:  54



 ======================
 RI Hartree-Fock Scheme
 ======================
  
 Fit Set Quality     : NORMAL
 Threshold Quality   : NORMAL
 Integration Quality : NORMAL
 Fit Generation Method : AUTO
 Response Quality    : DEFAULT
 Is Range Separated  :  F
 
 RIHartreeFock Dependency: number of modified vectors:           1



 =====
 S C F  ***  ScaSCF  ***
 =====
  
 Initial density matrix is calculated as sum of fragments

 CYCLE    1
 SCF Error: norm([F,P])=      3.330464124789, max([F,P])=      1.409767143039
 orbitals (Q,E):
 ---------------
 A1/2 :1...20        ( 1.00   -19.5197)  ( 1.00   -19.5197)  ( 1.00    -1.2739)  ( 1.00    -1.2739)
                     ( 1.00    -0.6959)  ( 1.00    -0.6959)  ( 1.00    -0.5647)  ( 1.00    -0.5647)
                     ( 1.00    -0.4847)  ( 1.00    -0.4847)  ( 0.00    -0.0580)  ( 0.00    -0.0580)
                     ( 0.00     0.0205)  ( 0.00     0.0205)  ( 0.00     0.1938)  ( 0.00     0.1938)
                     ( 0.00     0.2021)  ( 0.00     0.2021)  ( 0.00     0.2707)  ( 0.00     0.2707)

 CYCLE    2
   MIX coefficients:  0.8000  0.2000
 SCF Error: norm([F,P])=      0.514860674931, max([F,P])=      0.121096936695
 orbitals (Q,E):
 ---------------
 A1/2 :1...20        ( 1.00   -19.3643)  ( 1.00   -19.3643)  ( 1.00    -1.1916)  ( 1.00    -1.1916)
                     ( 1.00    -0.6351)  ( 1.00    -0.6351)  ( 1.00    -0.4954)  ( 1.00    -0.4954)
                     ( 1.00    -0.4149)  ( 1.00    -0.4149)  ( 0.00    -0.0393)  ( 0.00    -0.0393)
                     ( 0.00     0.0373)  ( 0.00     0.0373)  ( 0.00     0.2157)  ( 0.00     0.2157)
                     ( 0.00     0.2259)  ( 0.00     0.2259)  ( 0.00     0.3013)  ( 0.00     0.3013)

 CYCLE    3
  SDIIS (wt  0.000): -0.9984  1.9984
 A-DIIS (wt  1.000):  0.0000  1.0000
  DIIS coefficients:  0.0000  1.0000
 SCF Error: norm([F,P])=      0.262531327563, max([F,P])=      0.066148916786
 orbitals (Q,E):
 ---------------
 A1/2 :1...20        ( 1.00   -18.9793)  ( 1.00   -18.9793)  ( 1.00    -0.9549)  ( 1.00    -0.9549)
                     ( 1.00    -0.4789)  ( 1.00    -0.4789)  ( 1.00    -0.3192)  ( 1.00    -0.3192)
                     ( 1.00    -0.2401)  ( 1.00    -0.2401)  ( 0.00     0.0107)  ( 0.00     0.0107)
                     ( 0.00     0.0791)  ( 0.00     0.0791)  ( 0.00     0.2915)  ( 0.00     0.2915)
                     ( 0.00     0.3087)  ( 0.00     0.3087)  ( 0.00     0.3991)  ( 0.00     0.3991)

 CYCLE    4
  SDIIS (wt  0.000):  0.1063  0.4717  0.4220
 A-DIIS (wt  1.000):  0.0000  0.6724  0.3276
  DIIS coefficients:  0.0000  0.6724  0.3276
 SCF Error: norm([F,P])=      0.421824158618, max([F,P])=      0.105922182279
 orbitals (Q,E):
 ---------------
 A1/2 :1...20        ( 1.00   -19.1942)  ( 1.00   -19.1942)  ( 1.00    -1.0327)  ( 1.00    -1.0327)
                     ( 1.00    -0.5396)  ( 1.00    -0.5396)  ( 1.00    -0.3964)  ( 1.00    -0.3964)
                     ( 1.00    -0.3193)  ( 1.00    -0.3193)  ( 0.00     0.0015)  ( 0.00     0.0015)
                     ( 0.00     0.0699)  ( 0.00     0.0699)  ( 0.00     0.2716)  ( 0.00     0.2716)
                     ( 0.00     0.2860)  ( 0.00     0.2860)  ( 0.00     0.3620)  ( 0.00     0.3620)

 CYCLE    5
  SDIIS (wt  0.845):  0.0970 -0.0739 -0.1028  1.0797
 A-DIIS (wt  0.155):  0.0000  0.0000  0.0000  1.0000
  DIIS coefficients:  0.0819 -0.0624 -0.0869  1.0673
 SCF Error: norm([F,P])=      0.068510332486, max([F,P])=      0.016387731487
 orbitals (Q,E):
 ---------------
 A1/2 :1...20        ( 1.00   -19.2411)  ( 1.00   -19.2411)  ( 1.00    -1.0508)  ( 1.00    -1.0508)
                     ( 1.00    -0.5539)  ( 1.00    -0.5539)  ( 1.00    -0.4158)  ( 1.00    -0.4158)
                     ( 1.00    -0.3390)  ( 1.00    -0.3390)  ( 0.00    -0.0004)  ( 0.00    -0.0004)
                     ( 0.00     0.0680)  ( 0.00     0.0680)  ( 0.00     0.2678)  ( 0.00     0.2678)
                     ( 0.00     0.2814)  ( 0.00     0.2814)  ( 0.00     0.3533)  ( 0.00     0.3533)

 CYCLE    6
  SDIIS (wt  0.975): -0.0116  0.0166  0.0088  0.1126  0.8736
 A-DIIS (wt  0.025):  0.0000  0.0000  0.0000  0.0000  1.0000
  DIIS coefficients: -0.0113  0.0162  0.0085  0.1097  0.8768
 SCF Error: norm([F,P])=      0.014919495557, max([F,P])=      0.003519288450
 orbitals (Q,E):
 ---------------
 A1/2 :1...20        ( 1.00   -19.2316)  ( 1.00   -19.2316)  ( 1.00    -1.0476)  ( 1.00    -1.0476)
                     ( 1.00    -0.5513)  ( 1.00    -0.5513)  ( 1.00    -0.4124)  ( 1.00    -0.4124)
                     ( 1.00    -0.3356)  ( 1.00    -0.3356)  ( 0.00    -0.0001)  ( 0.00    -0.0001)
                     ( 0.00     0.0683)  ( 0.00     0.0683)  ( 0.00     0.2685)  ( 0.00     0.2685)
                     ( 0.00     0.2823)  ( 0.00     0.2823)  ( 0.00     0.3549)  ( 0.00     0.3549)

 CYCLE    7
  SDIIS (wt  1.000): -0.0038  0.0041  0.0039 -0.0185  0.1172  0.8971
  DIIS coefficients: -0.0038  0.0041  0.0039 -0.0185  0.1172  0.8971
 SCF Error: norm([F,P])=      0.000532431355, max([F,P])=      0.000119228777
 orbitals (Q,E):
 ---------------
 A1/2 :1...20        ( 1.00   -19.2319)  ( 1.00   -19.2319)  ( 1.00    -1.0477)  ( 1.00    -1.0477)
                     ( 1.00    -0.5514)  ( 1.00    -0.5514)  ( 1.00    -0.4125)  ( 1.00    -0.4125)
                     ( 1.00    -0.3357)  ( 1.00    -0.3357)  ( 0.00    -0.0001)  ( 0.00    -0.0001)
                     ( 0.00     0.0683)  ( 0.00     0.0683)  ( 0.00     0.2685)  ( 0.00     0.2685)
                     ( 0.00     0.2823)  ( 0.00     0.2823)  ( 0.00     0.3548)  ( 0.00     0.3548)

 CYCLE    8
  SDIIS (wt  1.000):  0.0002 -0.0003 -0.0002  0.0009 -0.0100 -0.0441  1.0535
  DIIS coefficients:  0.0002 -0.0003 -0.0002  0.0009 -0.0100 -0.0441  1.0535
 SCF Error: norm([F,P])=      0.000030535821, max([F,P])=      0.000007462206
 orbitals (Q,E):
 ---------------
 A1/2 :1...20        ( 1.00   -19.2319)  ( 1.00   -19.2319)  ( 1.00    -1.0477)  ( 1.00    -1.0477)
                     ( 1.00    -0.5514)  ( 1.00    -0.5514)  ( 1.00    -0.4125)  ( 1.00    -0.4125)
                     ( 1.00    -0.3357)  ( 1.00    -0.3357)  ( 0.00    -0.0001)  ( 0.00    -0.0001)
                     ( 0.00     0.0683)  ( 0.00     0.0683)  ( 0.00     0.2685)  ( 0.00     0.2685)
                     ( 0.00     0.2823)  ( 0.00     0.2823)  ( 0.00     0.3548)  ( 0.00     0.3548)

 CYCLE    9
  SDIIS (wt  1.000):  0.0000 -0.0000 -0.0000 -0.0000 -0.0002 -0.0024 -0.0044  1.0070
  DIIS coefficients:  0.0000 -0.0000 -0.0000 -0.0000 -0.0002 -0.0024 -0.0044  1.0070
 SCF Error: norm([F,P])=      0.000002396431, max([F,P])=      0.000000617510
 orbitals (Q,E):
 ---------------
 A1/2 :1...20        ( 1.00   -19.2319)  ( 1.00   -19.2319)  ( 1.00    -1.0477)  ( 1.00    -1.0477)
                     ( 1.00    -0.5514)  ( 1.00    -0.5514)  ( 1.00    -0.4125)  ( 1.00    -0.4125)
                     ( 1.00    -0.3357)  ( 1.00    -0.3357)  ( 0.00    -0.0001)  ( 0.00    -0.0001)
                     ( 0.00     0.0683)  ( 0.00     0.0683)  ( 0.00     0.2685)  ( 0.00     0.2685)
                     ( 0.00     0.2823)  ( 0.00     0.2823)  ( 0.00     0.3548)  ( 0.00     0.3548)

 SCF CONVERGED

 CYCLE   10
1
 ***************************************************************************************************



                                                *******************
                                                *  R E S U L T S  *
                                                *******************
  
  
 Hartree-Fock exchange energy:   -8.92498240220105     
 *** Using FIT density in Focky
  SDIIS (wt  1.000): -0.0000  0.0000  0.0000 -0.0000  0.0001 -0.0000 -0.0044 -0.0067  1.0111
  DIIS coefficients: -0.0000  0.0000  0.0000 -0.0000  0.0001 -0.0000 -0.0044 -0.0067  1.0111
 SCF Error: norm([F,P])=      0.000000047374, max([F,P])=      0.000000010630

 Orbital Energies, per Irrep and Spin:
 ======================================
                        Occup              E (au)              E (eV)       Diff (eV) with prev. cycle
                        -----      --------------------        ------       --------------------------
 A1/2
               1        1.000     -0.19231897462280E+02      -523.327               1.48E-07
               2        1.000     -0.19231897462255E+02      -523.327               1.48E-07
               3        1.000     -0.10477106919961E+01       -28.510               5.84E-07
               4        1.000     -0.10477106919784E+01       -28.510               5.84E-07
               5        1.000     -0.55138637711981E+00       -15.004               7.16E-07
               6        1.000     -0.55138637705543E+00       -15.004               7.16E-07
               7        1.000     -0.41248643803299E+00       -11.224               1.52E-07
               8        1.000     -0.41248643802547E+00       -11.224               1.52E-07
               9        1.000     -0.33571013258222E+00        -9.135               1.40E-07
              10        1.000     -0.33571013254767E+00        -9.135               1.40E-07
              11        0.000     -0.50477439805642E-04        -0.001
              12        0.000     -0.50477418381011E-04        -0.001
              13        0.000      0.68339275010404E-01         1.860
              14        0.000      0.68339275105789E-01         1.860
              15        0.000      0.26846696889843E+00         7.305
              16        0.000      0.26846696894943E+00         7.305
              17        0.000      0.28225742683534E+00         7.681
              18        0.000      0.28225742684633E+00         7.681
              19        0.000      0.35483754135929E+00         9.656
              20        0.000      0.35483754138570E+00         9.656
  
 HOMO :       10 A1/2             -0.33571013254767E+00
 LUMO :       11 A1/2             -0.50477439805642E-04
  


 All Electron Calculation, thus no Orbital Energies of the Core Orbitals are calculated


 Fit test: (difference of exact and fit density, squared integrated, result summed over spins)
         Sum-of-Fragments:                             0.00000000018622
         Orthogonalized Fragments:                     0.00001007944408
         SCF:                                          0.00003270105547



 ==========================
 Electron Density at Nuclei
 ==========================
  
 The electron density is calculated at points on a small sphere around the center of a nucleus.
 The printed electron density is the average electron density on these points.
 The radius of the sphere is the printed approximate finite nuclear radius.
 Note: density is calculated in the Dirac picture

         Atom        Nuclear Radius (Angstrom)             Electron Density (a.u.)
         ----        -------------------------             -----------------------
     1)   O                 0.0000345546                              312.41954
     2)   H                 0.0000181514                                0.47620
     3)   H                 0.0000181514                                0.47620



 =======================================
 M U L L I K E N   P O P U L A T I O N S
 =======================================
  
 The survey below gives for each atom:
 a) the total charge (Z minus electrons)
 b) the net spin polarization (nr of electrons spin-A minus spin-B)
 c) for each spin the atomic electron valence density (integrated) per L-value.

 Atom              Charge    Spin density          S         P         D         F
 ----              ------    ------------       ------    ------    ------    ------
 1 O              -0.5394                       3.7871    4.7126    0.0360    0.0037
 2 H               0.2697                       0.6071    0.1118    0.0114    0.0000
 3 H               0.2697                       0.6071    0.1118    0.0114    0.0000

 Populations of individual BAS functions
 ----------------------------------------
 1 O            0.6730  1.2863  0.0117  1.0020  0.8141  0.3196  0.2636  0.2248  1.0284  0.9096
                0.8710  0.5294  0.4476  0.1186 -0.0183  0.0032 -0.0000  0.0042  0.0223  0.0246
               -0.0103 -0.0101 -0.0089  0.0036 -0.0000  0.0069 -0.0011  0.0054  0.0135  0.0047
 2 H           -0.0431  0.2693  0.3810  0.0549  0.0466  0.0103 -0.0058  0.0017  0.0030  0.0034
                0.0028  0.0063
 3 H           -0.0431  0.2693  0.3809  0.0549  0.0466  0.0103 -0.0058  0.0017  0.0030  0.0034
                0.0028  0.0063

 Gross Charges per Atom (Z minus electrons)
 ==========================================
            -0.5394    0.2697    0.2697
 Net Total: -0.00000000


 Atom-Atom Population Matrix (off-diagonal elements not doubled)
 ===============================================================

     1 :     7.7458
     2 :     0.3968    0.4140
     3 :     0.3968   -0.0805    0.4140



 =================================================
 H I R S H F E L D   C H A R G E   A N A L Y S I S
 =================================================
  
 For each fragment: the (numerical) integral of rho(scf) * rho(fragment)/rho(sum-of-fragments)
 (nuclear charges are included, electrons are counted negative)

 The fragments and their ordering are defined in the early G E O M E T R Y output section.
 If you use single-atom fragments, this usually implies that all atoms of the same
 chemical type are grouped together. This may not be the order in which you listed them
 in the input file!

    1  O                        -0.3132
    2  H                         0.1566
    3  H                         0.1566

 Sum of these charges (accuracy NumInt/Tails) =           0.00001442



 =============================
 V O R O N O I   C H A R G E S
 =============================
  
 For each atom: the (numerical) integral of the total electronic charge density in its Voronoi cell,
 i.e. the region of space that is closer to that atom than to any other atom.
 (cf. Wigner-Seitz cells in crystals)

 Within the Voronoi cell the subintegrals over the atomic sphere and the remaining part are evaluated
 separately to give the numbers of electrons (negative charge) in these regions.
 The net total charge in the cell (including the nuclear charge) is also given.

 Values are provided for
    a) the Initial (sum-of-fragments) density
    b) the Orthogonalized-Fragments density
    c) the SCF density
    d) the Voronoi Deformation Density (VDD): the difference SCF-Initial for the complete atomic cell


  Atom                Initial                    OrthFrag                   SCF
             Sphere RestCell NetTotal   Sphere RestCell NetTotal   Sphere RestCell NetTotal      VDD
 -----       ------------------------   ------------------------   ------------------------    -----
    1 O      -2.813   -4.201    0.985   -2.952   -4.268    0.779   -2.840   -4.448    0.713   -0.273
    2 H      -0.078   -1.430   -0.509   -0.080   -1.321   -0.401   -0.106   -1.264   -0.370    0.139
    3 H      -0.078   -1.399   -0.477   -0.080   -1.299   -0.379   -0.106   -1.237   -0.343    0.134
 ---------------------------------------------------------------------------------------------------
 Total NetCharge:               0.000                      0.000                      0.000    0.000
 (accuracy NumInt/Tails)

 Remark: the 'NetTotal' Voronoi charges often do not match the Mulliken and/or Hirshfeld charges very
 well. This is caused by the fact that chemically different atoms are not treated in accordance with
 their relative sizes. (Voronoi cells are defined by boundary planes halfway between the atoms.)
 However, the CHANGES in charge, comparing 'Initial' to 'SCF' for instance, do give a fair indication
 of the flow of charge caused by the relaxation from sum-of-fragments to self-consistency.

 Warning: the absolute accuracy of the VDD charges obtained using the Fuzzy Cells (Becke) integration
 scheme is much poorer than the one obtained with an 'equivalent' Voronoi integration grid. 



 =================================================================
 M U L T I P O L E   D E R I V E D   C H A R G E   A N A L Y S I S
 =================================================================

 This charge analysis uses the atomic multipoles (obtained from the fitted density) up to some level X,
 and reconstructs these multipoles exactly (up to level X) by distributing charges over all atoms.
 This is achieved by using Lagrange multipliers and a weight function to keep the multipoles local.

 Dummy atoms can be included (by setting INCDUM in MDC-block to 1) to obtain a fractional charge.
 This is generally useful and necessary only for small symmetrical molecules, when there are not
 enough degrees of freedom to reconstruct the multipoles.

 Since the atomic multipoles are reconstructed up to level X,
 the molecular multipoles are represented also up to level X.
 The recommended level is to reconstruct up to quadrupole : -> MDC-q charges.

 See: M. Swart, P.Th. van Duijnen, J.G. Snijders, J.Comput.Chem., (2001), p. 79-88.

 ------------------------------------------------------------- 
 Atomic electronic multipole moments from SCF equations (a.u.)
 ------------------------------------------------------------- 

   atom        charge        dip-x     dip-y     dip-z      quad-xx   quad-xy   quad-xz   quad-yy   quad-yz   quad-zz
 --------------------------------------------------------------------------------------------------------------------
    1 O     -0.188810     0.000000  0.428772  0.000000    -0.938642 -0.000000  0.000000  0.080519 -0.000000  0.858123
    2 H      0.094405     0.000000  0.042621  0.088940    -0.152764  0.000000  0.000000  0.017684  0.063573  0.135079
    3 H      0.094405     0.000000  0.042621 -0.088940    -0.152764  0.000000 -0.000000  0.017684 -0.063573  0.135080

 --------------------------------------- 
 Multipole derived atomic charges (a.u.)
 --------------------------------------- 

 The MDC-m charges are just the Monopole terms in the multipole expansion, while for the MDC-d charges
 also the Dipoles are reconstructed. The usually preferred charges are the MDC-q charges.
 These reconstruct the Monopoles, Dipoles and Quadrupoles (both atomic AND molecular).

        Atom    Level:     MDC-m        MDC-d        MDC-q
 ---------------------------------------------------------
     1     O           -0.188810    -0.649918    -0.705009
     2     H            0.094405     0.324959     0.352504
     3     H            0.094405     0.324959     0.352504

 ------------------------------------------------ 
 Average absolute deviations in atomic multipoles
 ------------------------------------------------ 

 Stated here are the average differences between the atomic multipoles
 and the reconstructed atomic multipoles (from the distributed charges).
 If these values are not zero, this means there are not enough degrees of freedom,
 to be able to reconstruct the atomic multipoles. (This usually happens only
 for small and/or highly symmetric molecules). If this is the case, one could add
 dummy atoms as extra point charges (and setting INCDUM in MDC-block to 1).

 Level:                                 MDC-d        MDC-q
 ---------------------------------------------------------
 Charge   (a.u.)                       0.0000       0.0000
 Dipole   (Debye)                      0.0000       0.1560
 Quad.    (a.u.)                       0.1114       0.0298

 --------------------------------------- 
 Represented molecular multipole moments
 --------------------------------------- 

 Given here are the Molecular multipole moments from the atomic charges, and from the Fit Density.
 Note that the atomic charges represent the latter, NOT the ones from the Exact density.

            Q (a.u.)             Dipole moment (Debye)                                          Quadrupole moment (a.u.)
                                 x         y         z              xx        xy        xz        yy        yz        zz
------------------------------------------------------------------------------------------------------------------------
MDC-m         0.0000        0.0000    0.5350    0.0000         -0.4208    0.0000    0.0000    0.2573    0.0000    0.1635
MDC-d         0.0000        0.0000    1.8415    0.0000         -1.4486    0.0000    0.0000    0.8858    0.0000    0.5628
MDC-q         0.0000        0.0000    1.9976    0.0000         -1.5714    0.0000    0.0000    0.9609    0.0000    0.6105
 
Fit.Dens.     0.0000        0.0000    1.8415    0.0000         -2.2811    0.0000   -0.0000    0.8389    0.0000    1.4422



 =============
 Dipole Moment  ***  (Debye)  ***
 =============
  
 Vector   :         0.00000000      1.84384939      0.00000060
 Magnitude:         1.84384939

 This molecular dipole moment is calculated with analytic integration



 =========================================
 Quadrupole Moment (Buckingham convention)  ***  (a.u.)  ***
 =========================================
  
      quad-xx        quad-xy        quad-xz        quad-yy        quad-yz        quad-zz
     -2.28364030     0.00000001    -0.00000000     0.84007817     0.00000058     1.44356213

 This molecular quadrupole moment is calculated with analytic integration
1



 ===========================
 B O N D I N G   E N E R G Y  ***  (decomposition)  ***
 ===========================
  
*** IMPORTANT NOTE ***

The bond energy is computed as an energy difference between molecule and
fragments. In particular when the fragments are single atoms, they are usually
computed as SPHERICALLY SYMMETRIC and SPIN-RESTRICTED. Obviously, this usually
does NOT represent the true atomic groundstate.

To obtain the 'real' bond energy, (atomic) correction terms must be applied
for the true (multiplet) fragment ground state. See ref: E.J.Baerends,
V.Branchadell, M.Sodupe, Chem.Phys.Lett.265 (1997) 481

General theoretical background on the bond energy decomposition scheme used
here (Morokuma-Ziegler) can be found in the review paper:
F.M. Bickelhaupt and E.J. Baerends,
"Kohn-Sham Density Functional Theory: Predicting and Understanding Chemistry"
In: Rev. Comput. Chem.; Lipkowitz, K. B. and Boyd, D. B., Eds.;
Wiley-VCH: New York, 2000, Vol. 15, 1-86.

Symbols used in the Bickelhaupt-Baerends (BB) paper are given below to make
the direct connection to that paper, where detailed explanations can be found
on the meaning of the various terms.
The Spin-Orbit term is calculated as the expectation value of the spin-orbit
 operator summed over all occupied spinors.


                                                   hartree              eV         kcal/mol           kJ/mol
                                      --------------------     -----------       ----------      -----------
  pauli hf:                              0.091937321108833          2.5017            57.69           241.38
  elstat hf:                            -0.172253509114671         -4.6873          -108.09          -452.25

Pauli Repulsion
  Kinetic (Delta T^0):                   3.736434927344017        101.6736          2344.65          9810.01
  Delta V^Pauli Coulomb:                -1.986727530371059        -54.0616         -1246.69         -5216.15
  Delta V^Pauli Hybrid-X:               -0.308976080832066         -8.4077          -193.89          -811.22
  Delta V^Pauli Hybrid-C:               -0.028621421744160         -0.7788           -17.96           -75.15
  Delta V^Pauli HF-Exchange:            -0.080316188005838         -2.1855           -50.40          -210.87
                                      --------------------     -----------       ----------      -----------
  Total Pauli Repulsion:                 1.331793706390893         36.2400           835.71          3496.62
 (Total Pauli Repulsion =
  Delta E^Pauli in BB paper)

Steric Interaction
  Pauli Repulsion (Delta E^Pauli):       1.331793706390893         36.2400           835.71          3496.62
  Electrostatic Interaction:            -0.249641271720997         -6.7931          -156.65          -655.43
 (Electrostatic Interaction =
  Delta V_elstat in the BB paper)
                                      --------------------     -----------       ----------      -----------
  Total Steric Interaction:              1.082152434669897         29.4469           679.06          2841.19
 (Total Steric Interaction =
  Delta E^0 in the BB paper)

Orbital Interactions
  A:                                    -1.574505735353596        -42.8445          -988.02         -4133.86
  (Hybrid part) HF exchange:            -0.177868019531446         -4.8400          -111.61          -466.99
  Spin-Orbit:                           -0.000006868281788         -0.0002            -0.00            -0.02
                                      --------------------     -----------       ----------      -----------
  Total Orbital Interactions:           -1.752380623166831        -47.6847         -1099.64         -4600.87

Alternative Decomposition Orb.Int.
  Kinetic:                              -3.121860134641497        -84.9501         -1959.00         -8196.44
  Coulomb:                               1.596291438330145         43.4373          1001.69          4191.06
  XC+HF:                                -0.226805058573691         -6.1717          -142.32          -595.48
  XC only:                              -0.048937039042245         -1.3316           -30.71          -128.48
  HF Orbital:                           -0.177868019531446         -4.8400          -111.61          -466.99
  Spin-Orbit:                           -0.000006868281788         -0.0002            -0.00            -0.02
                                      --------------------     -----------       ----------      -----------
  Total Orbital Interactions:           -1.752380623166831        -47.6847         -1099.64         -4600.87

  Residu (E=Steric+OrbInt+Res):         -0.000005188903408         -0.0001            -0.00            -0.01

Total Bonding Energy:                   -0.670233377400342        -18.2380          -420.58         -1759.70


Summary of Bonding Energy (energy terms are taken from the energy decomposition above)
======================================================================================

  Electrostatic Energy:                 -0.249641271720997         -6.7931          -156.65          -655.43
  Kinetic Energy:                        0.614574792702520         16.7234           385.65          1613.57
  Coulomb (Steric+OrbInt) Energy:       -0.390441280944322        -10.6244          -245.01         -1025.10
  XC Energy:                            -0.644718749155755        -17.5437          -404.57         -1692.71
  Spin-Orbit:                           -0.000006868281788         -0.0002            -0.00            -0.02
                                      --------------------     -----------       ----------      -----------
  Total Bonding Energy:                 -0.670233377400342        -18.2380          -420.58         -1759.70


Correction terms (incorporated in energies above; only for test purposes):

1. Indication of fit-quality: 1st-order fit-correction used in the energy (hartree):   0.0002232856
2. Electrostatic (Fit correction):   0.0000000000



 =======================================================================
 Electrostatic potential at the Nuclei due to electrons and other nuclei
 =======================================================================
  
         Atom                  Potential
         ----                  ---------
     1)   O                  22.38148975
     2)   H                   0.99679838
     3)   H                   0.99679835
 Mulliken charges used for AMS results%charges...


    =====================
     CALCULATION RESULTS
    =====================

Energy (hartree)            -0.67023338


--------------
Atomic charges
--------------
  Index   Atom    Charge
      1      O   -0.5394
      2      H    0.2697
      3      H    0.2697


Dipole moment vector    (Debye):     0.00000000    1.84384939    0.00000060
              magnitude (Debye):     1.84384939


-----------------------
Molecular orbitals info
-----------------------
n orbitals:               96
n spin:                    1

Note: only printing virtual orbitals with
      energy smaller than HOMO + 100. eV

HOMO (eV):              -9.1351
LUMO (eV):              -0.0014
HOMO-LUMO gap (eV):      9.1338

   Index   Energy (eV)    Occupation
      60       86.0640         0.000       
      59       86.0640         0.000       
      58       85.3295         0.000       
      57       85.3295         0.000       
      56       74.4757         0.000       
      55       74.4757         0.000       
      54       70.8962         0.000       
      53       70.8962         0.000       
      52       68.6857         0.000       
      51       68.6857         0.000       
      50       61.1038         0.000       
      49       61.1038         0.000       
      48       60.9322         0.000       
      47       60.9322         0.000       
      46       51.1468         0.000       
      45       51.1468         0.000       
      44       46.8951         0.000       
      43       46.8951         0.000       
      42       45.2927         0.000       
      41       45.2927         0.000       
      40       44.5982         0.000       
      39       44.5982         0.000       
      38       35.0410         0.000       
      37       35.0410         0.000       
      36       34.4144         0.000       
      35       34.4144         0.000       
      34       29.8545         0.000       
      33       29.8545         0.000       
      32       23.2559         0.000       
      31       23.2559         0.000       
      30       19.4709         0.000       
      29       19.4709         0.000       
      28       16.0748         0.000       
      27       16.0748         0.000       
      26       15.1684         0.000       
      25       15.1684         0.000       
      24       13.7005         0.000       
      23       13.7005         0.000       
      22       11.3344         0.000       
      21       11.3344         0.000       
      20        9.6556         0.000       
      19        9.6556         0.000       
      18        7.6806         0.000       
      17        7.6806         0.000       
      16        7.3054         0.000       
      15        7.3054         0.000       
      14        1.8596         0.000       
      13        1.8596         0.000       
      12       -0.0014         0.000       
      11       -0.0014         0.000 < LUMO
      10       -9.1351         1.000 < HOMO
       9       -9.1351         1.000       
       8      -11.2243         1.000       
       7      -11.2243         1.000       
       6      -15.0040         1.000       
       5      -15.0040         1.000       
       4      -28.5097         1.000       
       3      -28.5097         1.000       
       2     -523.3266         1.000       
       1     -523.3266         1.000       

AMS application finished. Exiting.
NORMAL TERMINATION
     Total cpu time:       3.71
  Total system time:       0.45
 Total elapsed time:       6.10
